  2.8337382e-03   4.5986858e-06
  5.6772949e-03   1.0225294e-06
  1.2109795e-03   1.4882719e-03
  3.6085021e-02   1.6806678e-07
  1.0107393e-02   1.8036680e-03
  1.0745288e-02   3.0049076e-04
  2.3852818e-01   4.0708616e-07
  7.7668345e-03   7.4227646e-05
 -1.2362960e-02   7.8994554e-04
 -4.6880743e-03   2.9391134e-03
  1.8947316e-02   7.5500852e-06
 -1.1310605e-04   2.5201128e-03
 -3.0851422e-03   7.2091981e-04
  6.4969719e-03   3.3739620e-04
 -3.8104441e-05   3.5482095e-04
  3.5713648e-04   6.3012738e-04
 -2.9211694e-03   5.1028241e-04
  1.9345711e-03   7.0438778e-04
  3.6740387e-03   7.1819650e-04
  2.3833709e-03   3.5564397e-05
 -4.1204500e-03   4.4077818e-04
 -7.7018060e-04   1.2598530e-03
 -1.2999466e-02   1.8084770e-04
  9.5917722e-03   1.6991113e-04
 -4.7018477e-03   8.6057419e-04
  9.1308635e-03   4.3897520e-04
  8.2726328e-04   5.6901720e-04
 -1.3685252e-02   5.0304271e-04
  3.3811426e-03   1.0488364e-04
 -3.5928591e-05   5.2384532e-04
  2.1745007e+00   9.7607563e-07
  1.8356172e-03   1.0771475e-03
  1.5834427e-03   6.0364539e-05
 -4.2054346e-03   9.9735116e-05
  4.0912256e-03   2.7582866e-05
  3.2020446e-03   4.9061107e-04
  1.5628807e-03   3.4876534e-04
 -1.7888215e-03   7.6235342e-04
  9.1035655e-03   4.3580707e-04
 -4.4812923e-03   8.5452263e-04
  2.3921675e-03   6.0528266e-04
 -1.8355348e-03   5.2739476e-04
 -3.2030493e-03   1.1949155e-04
 -1.3709697e-02   1.0945158e-03
  4.1687982e-03   3.6235168e-04
 -1.5122086e-02   4.1087671e-05
  9.9723646e-04   1.1894000e-04
  3.9853617e-03   8.4504180e-05
 -8.7434724e-03   2.3643472e-03
  7.0903818e-03   2.8937293e-04
  6.9604688e-03   1.3033639e-03
  3.1665219e-03   3.0878364e-04
 -1.3431292e-03   4.2369764e-04
 -5.3872038e-03   3.3252165e-04
  1.3347328e-01   3.2905908e-05
 -2.1705037e-01   1.7941746e-04
  1.0335869e-02   1.2032408e-05
  2.5699678e-01   2.7016652e-06
  5.7830930e-02   2.6496995e-04
 -8.3376221e-02   4.4407184e-06
  5.9037216e-02   3.9516224e-05
 -2.7901541e-02   2.6782922e-05
 -4.1332820e-01   8.9085582e-08
  2.2474354e-02   2.2485721e-04
 -2.0341966e-02   1.4340910e-04
 -1.1166256e-02   1.7768540e-05
 -1.7186064e-02   4.9502595e-04
  1.5210101e-01   3.6424085e-06
 -6.8677120e-02   1.5350724e-04
 -2.9474063e-02   1.1754109e-04
 -5.4493737e-03   2.7683770e-04
  1.9510470e-01   1.9282046e-08
  3.1653177e-02   9.0604277e-05
 -3.8155992e-02   1.2597717e-04
  1.2737954e-01   8.1756070e-06
 -3.9267801e-02   1.5836288e-04
  3.3409100e-02   3.2155644e-06
 -2.6207098e-01   4.9712944e-05
 -3.0926462e-02   3.2575603e-04
  6.6146336e-02   6.9781400e-08
 -4.8742801e-02   4.6108893e-05
 -3.2675274e-02   3.4881396e-05
  3.8001359e-02   1.6194164e-04
  5.7655703e-02   5.1821295e-05
  9.3068555e-03   7.6668184e-05
 -2.2713907e-02   3.8773876e-05
 -7.3400897e-01   2.9832659e-06
 -1.1229236e-02   3.0748040e-05
  1.8926576e-02   2.4646894e-05
  1.9864323e-02   5.5963563e-05
  2.9530432e-02   2.3917020e-04
  1.0906862e-01   1.1477178e-04
 -1.5270519e-02   1.2176609e-04
  5.6568824e-02   4.1103634e-05
 -1.4121450e-03   6.3448283e-04
  4.5353439e-02   4.2947006e-05
 -4.5808956e-02   8.5106309e-05
 -1.4140991e-02   2.4411680e-04
 -1.3379303e-01   5.4706211e-06
 -1.6505398e-03   2.0482414e-03
 -2.3118205e-02   1.7815929e-04
  1.9625869e-02   1.1051773e-03
  2.1070521e-02   6.8323884e-06
  4.8196413e-02   3.8364137e-04
 -4.7809832e-02   1.1030182e-04
  2.5513761e-02   1.0154871e-04
  1.7215853e+00   1.7060712e-06
 -1.9289160e-01   9.3071758e-05
 -1.8633021e-02   1.2485943e-05
 -1.2190289e-01   2.3754328e-08
 -9.1649957e-02   2.1704987e-05
 -2.8632665e-01   1.9543028e-05
 -5.0948810e-02   6.5275849e-06
 -4.5995471e-01   1.7135098e-06
  2.2150359e-01   3.4061870e-06
 -2.5267139e-01   1.5717001e-04
  3.2069430e-01   4.1143434e-05
 -1.5204723e-01   5.3010167e-06
  9.2484495e-03   8.1035660e-06
 -1.0442107e-02   4.9372164e-05
 -1.4919000e-02   5.7266761e-06
 -7.5694688e-02   7.0873240e-05
  4.0950704e-02   2.5662192e-04
 -9.1206945e-02   1.8370229e-05
 -2.6260952e-02   7.2058217e-05
 -2.9388249e-02   3.2789420e-04
  1.1005116e-02   7.1250164e-05
  7.5962283e-02   4.4862181e-06
 -8.6199865e-02   1.5335561e-05
  8.6802123e-03   1.6071301e-04
  1.1871652e-01   1.9060272e-04
  3.4733515e-02   7.3357296e-05
  2.6004335e-01   1.6969107e-05
 -1.9899063e-01   2.4176502e-04
  4.3225579e-02   1.1282973e-04
 -8.3093219e-02   3.8409569e-05
 -1.4919795e-01   1.2656278e-05
 -9.0194635e-02   9.9451798e-05
 -3.0586323e-02   2.7429076e-05
 -6.8928815e-02   3.4369140e-07
 -1.3428360e-01   2.8074448e-04
 -1.9269740e-02   1.5445403e-05
 -3.0905642e-02   7.7645131e-04
 -1.2852497e-01   7.5147604e-05
 -5.4479368e-02   2.0157006e-05
 -1.1261791e-02   1.1587672e-04
 -1.0911281e-01   3.1406402e-05
  1.8867532e-02   2.6737982e-05
  6.2574871e-02   1.3318999e-05
 -1.0482316e-01   4.7861153e-04
 -6.3682780e-02   9.3697170e-05
 -1.1533711e-02   1.7137486e-04
  1.9329469e-01   2.0152032e-05
  6.5691605e-02   2.1002519e-04
  8.4945798e-02   5.0104198e-05
 -2.4141038e-02   1.5933756e-04
  6.5727829e-04   1.2275590e-04
 -1.1797943e-01   1.1014211e-04
  2.8372370e-02   2.5866057e-05
  7.9467930e-03   2.2767519e-04
 -4.0478896e-02   3.5018337e-04
  6.2921807e-02   4.6110174e-04
 -1.6363972e-01   1.6256985e-05
 -8.3527046e-01   7.8998455e-05
 -1.2820666e-01   9.0621097e-06
  3.3966538e-01   9.5799096e-06
 -2.6521515e-02   6.5798685e-04
  1.4732671e-01   5.3961932e-05
  2.5092837e-01   2.9361701e-05
  9.3582071e-02   2.5671265e-05
  1.2570044e-01   1.4935296e-06
 -3.9390374e-02   5.4559024e-04
  1.3101666e-02   1.5395893e-04
 -3.0051421e-02   7.1228722e-05
 -1.0243474e-02   6.4027619e-05
 -1.0178350e-01   3.9705331e-04
  3.1481594e-02   2.2630011e-06
 -1.0639190e-02   2.0456007e-05
 -4.6746358e-02   7.3511192e-06
 -6.5744877e-02   1.2248081e-04
 -2.2587467e-02   3.8048591e-07
  1.8071944e-03   3.0332296e-05
 -1.5997332e-02   2.0781279e-04
  5.1151797e-02   1.1050773e-04
  3.2476414e-02   1.7334691e-05
  8.6473338e-02   7.8013101e-05
  9.9624790e-02   3.2976186e-05
 -1.1935174e-01   8.3369574e-05
  1.8325953e-01   2.3221070e-05
 -2.8800026e-02   5.3600175e-04
 -8.5988559e-02   4.7680958e-05
 -4.4230971e-02   3.3991566e-04
 -5.2952446e-02   1.4500813e-04
 -8.6698152e-02   1.6028649e-04
 -1.0732812e-01   1.3750674e-04
 -1.7900443e-02   1.6419275e-04
 -4.3232247e-02   8.8809611e-05
 -4.5228817e-02   1.7419447e-05
 -4.0190138e-02   9.5577206e-04
 -3.8940575e-02   1.7814785e-04
 -8.2762681e-02   2.7329809e-04
  2.5084881e-02   4.1099098e-05
 -6.1486787e-03   3.3188760e-05
  4.0809147e-02   1.2300654e-04
 -3.9310120e-02   8.6592481e-05
 -2.1396264e-02   6.6740453e-05
 -3.5980005e-02   8.8580218e-06
  2.9554099e-02   1.4583091e-04
  4.8507679e-02   6.8145207e-05
 -2.7105333e-02   3.4963254e-05
  1.9463426e-02   4.0805840e-04
 -9.1540679e-02   1.3715816e-04
  3.1222770e-02   3.1106776e-04
 -6.1635980e-03   2.0728189e-04
 -2.0985255e-02   4.8557328e-04
  2.6927389e-02   8.6701919e-05
  5.6593693e-03   1.1760676e-04
  1.0970932e-02   4.1651394e-04
  3.8623139e-02   4.0241505e-07
  3.0194374e-02   1.7149825e-05
  7.6360088e-03   7.2219176e-04
 -2.2458756e-02   9.0514550e-05
 -1.2390395e-02   1.3277863e-04
 -8.6170156e-04   8.8932145e-05
 -6.6572808e-02   1.5474677e-04
  1.3422241e-02   7.6622708e-04
 -1.0748004e-02   6.7391040e-05
 -9.0832617e-03   1.4960073e-03
 -1.3710582e-02   4.2964480e-04
  2.7295493e-03   2.5351177e-04
  6.1001442e-03   1.0578598e-05
  2.3661431e-02   4.4798512e-06
  4.6138642e-03   4.4854318e-05
  4.6618800e-03   1.3594625e-04
  1.1608607e-02   4.7119360e-05
 -1.7012794e-02   7.5953081e-04
  6.6621417e-01   2.2881171e-05
 -1.0002912e-03   4.3038934e-05
  5.0456818e-02   1.0775568e-05
  1.7364513e-02   1.7413082e-04
 -1.5557013e-02   6.7126137e-05
  4.5610223e-02   1.7557820e-04
  8.1900796e-03   1.5505331e-05
  9.5104547e-03   5.0546881e-04
  1.6606458e-02   3.2413233e-04
  1.3312723e-02   8.8188809e-04
  2.6370157e-03   5.2848558e-05
  1.6215935e-02   1.1979762e-03
  3.8089100e-02   1.0911484e-04
  7.6692202e-03   2.0669228e-04
  1.2010826e-03   2.0392245e-04
  1.8486971e-02   1.9252875e-05
  1.0475152e-02   3.5282579e-04
  2.1402966e-03   6.2643911e-04
  5.6096909e-05   2.8407737e-04
 -1.5509323e-02   1.5410789e-03
 -1.2962375e-03   2.9122346e-04
 -1.1272516e-02   2.4303658e-06
  1.2528216e-03   9.7197546e-05
 -2.0757404e-03   1.8822047e-03
  5.4831839e-01   1.6736595e-06
  1.7475171e-03   3.3364515e-06
 -1.8592883e-02   1.2309304e-04
  1.1596610e-02   2.0769441e-05
 -7.2215693e-03   1.2004919e-03
  2.1690907e-02   7.1539835e-04
  9.3403850e-03   7.5724907e-05
  1.1070017e-02   6.6603400e-04
  1.6012512e-02   5.3450518e-04
  4.9906312e-03   1.1423964e-03
  4.8454240e-02   4.0912892e-06
  1.7293316e-01   7.7027653e-05
  1.9533999e-02   3.9002695e-04
 -6.0144842e-02   2.2307418e-05
 -1.1602926e-02   8.6970511e-05
 -7.2376202e-03   7.9984136e-05
 -3.8468339e-02   2.2247717e-05
 -1.4369398e-01   8.8442885e-06
 -2.2788247e-02   1.4052361e-04
  1.7214701e-02   4.1936306e-04
 -1.1437914e-02   1.7918163e-04
 -9.5832086e-04   1.2568857e-04
 -2.1749787e-02   4.8271628e-04
  3.9017857e-03   2.6052838e-04
 -4.2811190e-03   2.4320443e-04
 -1.0914019e-02   1.2826303e-03
 -1.1496037e-02   1.3775389e-04
  3.2011897e-03   5.8664597e-04
  5.5499678e-03   1.4387044e-03
 -2.7752178e-02   3.8519025e-05
  4.4136862e-03   1.7943670e-04
  3.1173089e-01   2.3516754e-05
  1.8112157e-03   5.5430963e-05
 -1.2087168e-02   7.6842320e-04
 -2.5030795e-01   2.7896129e-07
  3.4332197e-02   1.4870297e-03
 -2.9946933e-02   4.4867675e-06
  4.7181002e-03   1.2552387e-04
  1.6260715e-02   4.7309417e-04
  2.2950755e-02   8.7838467e-05
  1.3148830e-02   9.5087817e-05
  1.3517207e-02   1.5175456e-04
  4.0980041e-02   2.3232939e-04
  1.2599945e-03   3.1629290e-06
  6.6376501e-03   2.9537146e-04
  2.3125103e-02   1.4997365e-06
  4.7565498e-03   2.0312380e-04
 -2.2048173e-03   9.8037388e-05
 -2.5734208e-03   5.8958842e-05
 -4.2803595e-03   1.7499176e-03
  4.5965843e-02   2.4553376e-05
  3.2600470e-02   2.8656374e-05
  6.8817022e-03   9.5443167e-05
 -1.8844020e-03   2.2568308e-04
 -1.4266606e-02   3.9196765e-04
 -2.9016628e-03   4.6244104e-04
 -1.0239339e-02   6.1826569e-05
 -1.1808583e-02   2.7329294e-05
 -9.0720952e-03   7.6950877e-04
 -2.1268016e-01   2.9447515e-08
 -1.6707976e-01   1.5389660e-05
 -2.0458469e-02   8.0895979e-06
  1.5387684e-02   2.4792803e-03
 -4.1637332e-03   1.5388300e-04
 -1.9624211e-02   4.2229240e-05
 -7.3148578e-05   9.1203845e-05
 -5.1757239e-04   3.5382819e-04
  9.6380077e-03   7.2883436e-04
  3.4489017e-03   6.6046580e-04
  6.6139703e-03   1.5215390e-06
  1.8887013e-02   6.4314809e-04
  5.3862594e-03   4.8029376e-04
  7.2710172e-05   5.1288000e-05
 -2.6954228e-02   5.0201787e-05
 -1.8059496e-02   1.0745396e-05
 -2.8778163e-01   5.7750742e-05
 -4.9650058e-01   9.3197132e-06
 -1.7187239e-04   2.0572972e-04
 -7.1215705e-04   1.6233724e-04
  4.0058009e-03   1.3936425e-03
  7.2427192e-03   5.4687617e-04
  7.9669227e-04   1.1282376e-03
  2.9670588e-05   6.7097042e-04
  1.1716987e-02   1.9469013e-03
  5.7068947e-03   7.7320397e-04
  2.7573539e-03   5.9864222e-04
  1.2931892e-02   9.5801248e-04
 -3.0220076e-03   2.7148245e-04
  1.3418652e-03   1.5394222e-04
 -6.8895724e-03   4.8188079e-04
 -3.2276283e-03   1.4125301e-03
 -2.1643404e-02   7.6056008e-06
  1.3540831e-02   2.1892934e-05
 -1.1443610e-02   2.0523471e-04
  1.8092056e-04   4.3245399e-04
  3.6499260e-03   2.7038038e-04
 -4.4799857e-03   3.4300529e-04
 -3.0918645e-03   9.3703589e-04
 -8.4755933e-03   1.1684489e-04
 -3.4711193e-03   2.7212527e-04
  9.8202447e-04   4.6053797e-04
 -1.0240801e-02   5.4994463e-05
 -7.8716446e-03   2.2177985e-05
  7.1300818e-03   8.2989645e-05
 -2.6053390e-03   5.4062594e-04
  1.0984427e-01   1.0829858e-05
  9.4727129e-03   2.1171541e-05
  6.3971616e-03   8.7365590e-04
 -8.8761281e-03   3.7790665e-05
 -3.6926020e-02   1.0394338e-06
  4.3046307e-03   7.5881486e-04
  3.5794240e-03   3.6064564e-04
  5.8259261e-03   6.7488058e-05
 -2.0415024e-03   3.4576493e-05
  8.7881116e-03   9.1369305e-04
  3.6276283e-03   3.5559875e-05
 -1.2448587e-02   7.1986561e-04
  8.9867236e-03   8.0644945e-04
 -2.2410074e-01   3.6024448e-05
 -5.2560091e-02   3.0322251e-06
 -4.6530120e-02   2.5009103e-05
  7.7129528e-02   1.0308661e-05
 -8.0655172e-02   1.4172064e-04
  3.2492584e-01   7.0033988e-05
  3.1717706e-01   9.4698968e-05
  1.7776881e-01   5.9532395e-06
  2.5528762e-01   5.8686444e-05
 -1.1713457e-01   6.7175140e-05
  2.5542445e-02   3.8322352e-05
  1.0319102e-02   8.7439938e-04
 -1.2476182e-02   9.0942985e-06
  1.9413631e-02   1.1210074e-04
  9.4171330e-02   2.1957760e-05
  2.0311130e-02   3.0107743e-05
 -1.2903795e-02   6.2231251e-05
 -5.0428305e-02   1.0873482e-06
 -3.4336697e-02   2.5861364e-04
  8.1954449e-02   1.2473026e-05
 -1.0807232e-02   4.0462660e-06
  8.4339984e-02   2.8813467e-05
 -1.3829918e-01   8.8843677e-05
 -4.5824701e-01   1.6973094e-05
  4.8635706e-01   4.4497438e-06
 -1.4763460e-01   7.3400076e-04
  1.1706632e-01   1.9829176e-06
 -6.3548148e-02   6.6757959e-04
 -1.5393168e-01   5.7599264e-05
 -3.7538428e-02   5.8194273e-05
 -2.5213255e-02   1.2185220e-05
 -4.1994061e-02   1.6978498e-07
 -1.1447910e-01   6.8553770e-04
 -7.0264027e-02   3.2567026e-04
 -1.8859833e-02   1.1227416e-04
 -1.0849927e-01   3.3568209e-05
 -3.5187192e-02   3.8866003e-04
  3.4912754e-02   5.3333256e-06
 -1.1185768e-01   8.2501201e-06
  6.1636698e-02   3.5433761e-05
  3.0333098e-02   2.8492394e-04
 -8.6906172e-02   2.2360827e-04
  9.8772207e-03   2.5994245e-06
 -9.7762058e-03   1.0292354e-03
 -1.0041779e-01   1.4945634e-05
  2.7611421e-02   1.4460073e-03
  4.7692463e-02   9.3553725e-05
 -9.9158913e-02   1.4391520e-04
 -9.0176620e-02   2.5236395e-07
 -5.6412011e-02   1.6133928e-04
  4.1685779e-02   3.9340774e-04
 -5.3435430e-02   1.8938192e-05
 -3.9263748e-02   1.3879018e-03
  3.6130551e-02   2.9166116e-04
 -4.9544719e-01   2.7572863e-05
  2.5898573e-01   1.0836101e-07
 -9.7445285e-01   3.1098458e-05
 -1.1944428e-01   5.5407855e-07
 -9.5187120e-02   3.3511227e-04
  9.2648220e-01   8.0099471e-06
 -5.9899908e-01   5.5963146e-06
  2.4254924e-01   4.7567778e-06
  1.6613965e-01   7.4025216e-08
 -7.3893510e-02   5.1182105e-05
  8.6276524e-02   1.7091834e-04
 -1.0870197e-01   1.8148220e-04
 -9.0596139e-02   5.7968529e-05
  2.9222881e-02   2.9106848e-06
  1.2029890e-01   2.2379041e-05
  2.3603214e-02   1.1952288e-04
 -4.8912067e-02   3.9770392e-05
  2.0270296e-03   1.3583830e-05
 -7.7445269e-02   2.8815492e-05
  1.4774433e-01   8.2101193e-05
  1.7858719e-02   9.0696769e-05
  4.8762612e-02   1.3642096e-04
  4.7670120e-01   8.2171377e-05
 -9.9992927e-04   1.1703708e-05
  5.8030647e-01   1.2254288e-05
 -3.6071476e-02   1.3600283e-04
  3.2463285e-01   9.7082266e-05
  9.8916180e-02   2.9636905e-04
  1.8784423e-01   9.5671103e-06
 -1.1665346e-01   4.2952352e-06
 -9.4877882e-04   6.6059030e-04
  2.4575356e-01   7.1336457e-05
 -1.0545825e-02   7.3873729e-04
  3.5325702e-02   6.2039187e-05
  2.1824662e-02   2.2128486e-04
  4.2141357e-01   2.8422271e-05
  1.1139973e-02   2.2992307e-04
  8.6620279e-02   2.3925227e-04
 -9.1235198e-02   1.7574165e-04
 -1.6119646e-01   1.3063080e-04
  3.4329183e-02   2.3483028e-04
 -3.1664398e-02   5.5999972e-04
  7.8408137e-02   4.1906351e-05
 -2.5911070e-02   6.1544555e-04
  1.7220910e-01   1.5000914e-05
 -9.2131291e-03   1.7169815e-04
 -1.7536089e-03   1.0652987e-03
 -2.2613190e-02   2.5273257e-04
  3.9313352e-03   2.4453329e-04
 -1.0324889e-01   2.1668659e-04
  1.0014275e-01   2.7484330e-04
 -1.0019575e-01   4.5540108e-04
 -2.4196424e-02   5.8180781e-04
  1.1885056e-01   1.4175868e-06
 -2.2787938e-01   6.5443906e-05
  2.0187521e-01   1.1957763e-06
 -1.9170959e-01   6.6116127e-06
 -7.3466271e-01   5.4876368e-06
 -1.2280519e-01   2.0389042e-04
 -3.0461943e-01   2.0439416e-05
  7.1663171e-02   1.9911828e-05
  2.2815025e-01   2.9377821e-05
  2.0009615e-01   2.2620068e-06
 -8.3344907e-02   4.4430549e-06
  4.2998096e-01   1.3486290e-06
 -1.8223463e-02   6.1575405e-04
 -2.1717115e-03   2.1632921e-05
 -4.3244168e-02   6.8286347e-05
 -8.2338396e-03   2.5743389e-04
  8.3435975e-02   2.2913546e-04
 -8.9050075e-03   3.0588264e-05
 -5.8660768e-02   2.8468136e-04
 -9.7923599e-02   9.0420959e-05
  1.2436692e-01   7.2334155e-06
 -3.8831219e-02   8.3579107e-05
  1.4054130e-01   1.5057334e-05
  2.3171681e-01   6.8622912e-06
  6.7540798e-03   1.7993869e-05
  1.9703653e-02   3.1637945e-05
  1.8940307e-02   2.5632953e-05
  1.9879267e-01   5.3425501e-06
  3.7997637e-02   3.5463326e-04
 -1.7131748e-02   9.6914191e-05
 -1.2812364e-01   9.8108067e-06
  3.0307963e-02   3.8803108e-05
  9.0489298e-02   1.4582071e-04
 -8.8781297e-02   8.9001365e-04
 -1.0877600e-01   1.2447883e-04
  2.5417304e-02   5.3879787e-04
 -8.8532574e-02   8.0777691e-06
 -2.8401185e-02   2.2231188e-04
  7.3982835e-02   1.5906000e-05
 -7.3180541e-02   4.6094501e-05
  1.3507719e-01   1.7727935e-04
  5.0543409e-02   5.6002470e-04
 -1.1557021e-01   3.0153376e-04
  7.5755924e-02   1.9545900e-05
 -3.6972815e-03   2.9875396e-04
  5.8387078e-02   5.9182485e-06
 -2.5764387e-03   9.2065171e-04
  2.1328272e-03   6.2759622e-04
 -3.4975674e-02   1.9384942e-04
 -1.0045148e-02   5.5020623e-04
 -9.1566473e-02   4.4765302e-06
  1.0309918e-01   2.3572687e-04
 -1.0193492e-01   2.1708509e-04
 -1.9806394e-02   8.4162486e-04
  1.2593382e-02   2.2758154e-04
 -2.7789602e-02   1.0822079e-04
 -4.0154755e-02   1.5741651e-04
  7.9338560e-03   4.6210047e-05
 -5.3528514e-02   5.5734894e-05
 -2.1099072e-02   2.2266488e-04
  1.7389594e+00   1.9951040e-06
 -8.2217619e-02   3.7134498e-05
  1.3530911e-02   9.6387143e-05
  8.0771551e-02   1.5904213e-06
  8.3979415e-03   2.6835871e-04
 -2.9131269e-01   5.2122946e-06
 -1.9805557e-04   1.8459718e-03
 -8.9393184e-03   1.1072414e-03
 -1.4594361e-02   1.0915920e-04
  6.0069941e-02   6.0070843e-06
  2.6437195e-03   1.7115921e-03
 -1.4957866e-02   2.1292450e-05
 -2.2991264e-02   7.1046656e-05
  2.3488139e-03   3.8108643e-04
 -7.0171352e-03   4.2833528e-04
 -2.0400271e-02   3.8825383e-05
  1.3977104e-02   2.5307300e-04
  5.3868972e-02   2.7054217e-05
  2.4099851e-01   1.0515957e-05
 -3.6840725e-03   4.4252734e-05
 -1.9888751e-02   2.8830863e-04
  3.7309583e-02   2.6607103e-04
  7.5328066e-03   4.9031881e-04
 -5.6505221e-04   1.0031713e-05
 -5.8488199e-03   1.6060963e-05
 -7.6545808e-03   8.2170556e-04
  3.0055301e-02   4.9501477e-07
 -3.5517586e-03   4.3700955e-05
  2.0661224e-02   5.5815843e-05
 -8.6097084e-03   1.1732978e-04
  1.0151072e-02   2.6850705e-06
 -7.2978381e-03   5.7141013e-05
  1.7156367e-03   7.7252177e-04
  1.8823097e-02   2.5327427e-05
  1.1539432e-03   4.8160440e-05
 -1.4128009e-03   3.3601113e-03
 -1.2646931e-02   4.4891829e-04
 -2.6571008e-03   7.7184243e-04
  8.6649815e-03   1.1493673e-03
  1.3514215e-02   8.6732744e-04
 -9.7118486e-03   4.9280938e-05
  3.0337363e-01   1.0907506e-05
  6.0930806e-03   6.7021897e-06
  2.7436330e-03   1.0432749e-05
 -1.6114455e-02   1.5016840e-03
  2.9937815e-02   1.3590519e-03
 -9.6539175e-03   2.2379123e-04
  4.1120927e-04   7.6834272e-05
 -9.3244128e-03   3.2823853e-04
 -1.6635699e-02   3.4397188e-05
 -2.6643230e-02   1.4027629e-04
  2.6702197e-02   9.9973229e-05
  4.9031176e-02   5.7581656e-05
 -1.3918961e-02   2.5589639e-04
 -9.6195294e-03   7.5584670e-05
  3.9124846e-02   2.7372068e-04
 -1.9679366e-02   3.8865761e-05
  6.1161164e-03   3.9820206e-05
 -2.1086384e-02   1.1867653e-04
  9.4888899e-03   2.1948363e-03
  2.2146933e-02   8.0980753e-05
  8.7838881e-03   1.0418892e-03
 -2.1511696e-02   1.0998666e-04
 -1.0635532e-02   3.3560276e-04
  1.6440220e-02   4.8977573e-04
  6.5916264e-03   9.9247729e-04
  1.0724761e-01   1.7074060e-06
  8.6707016e-03   2.1446038e-05
  1.5781404e-02   4.6986017e-05
 -2.1216322e-02   5.1437051e-04
  2.2392167e-02   1.5204816e-04
  1.1340058e-02   2.5920628e-04
  1.9577317e-02   3.0082391e-04
 -7.7967243e-03   8.3282503e-05
 -4.7515798e-02   6.0839386e-04
  9.3244258e-03   9.7422409e-05
 -1.9056482e-02   1.7752033e-04
 -2.2212880e-02   2.7097279e-04
 -2.6264682e-02   3.6283294e-04
 -2.4126047e-02   9.2863245e-04
 -3.9135618e-03   3.8019465e-05
 -2.2147000e-02   8.7484928e-05
  1.2132335e-02   4.8935199e-06
  2.0579819e-03   3.2215292e-04
 -1.6922576e-02   2.7705041e-06
 -6.5426356e-03   9.4040617e-05
 -3.0921428e-03   5.8387552e-04
 -2.0927230e-02   1.9142713e-04
  2.5700944e-02   4.2894113e-04
  2.9215966e-03   4.5367962e-04
 -4.1751776e-02   4.8959372e-04
  2.3315314e-03   2.1501695e-04
 -1.5055884e-02   1.6287375e-03
  1.2818961e-02   1.9482219e-04
 -3.8267360e-03   2.4418523e-05
  1.5740698e-02   1.1842424e-03
 -6.4444356e-03   1.7653019e-04
  2.1745113e-03   6.8417931e-04
 -2.5817206e-02   2.0764439e-04
  5.1587271e-03   3.6227761e-04
  1.5657772e-01   1.2190897e-05
  8.0440193e-03   3.5202607e-05
 -3.9871223e-02   3.5518231e-05
  1.9703235e-03   8.0496125e-04
  1.0705423e-02   1.0024977e-04
  8.0486368e-03   2.4492011e-04
 -7.0466292e-03   5.4975942e-04
 -6.4019645e-03   1.8005115e-03
 -5.6968071e-03   5.3273652e-06
 -1.2486535e-02   1.0575249e-04
  2.5771051e-03   1.4146848e-03
 -6.2056035e-03   5.3916683e-05
  3.1736242e-03   1.1233990e-03
  7.6208967e-03   4.5585242e-04
 -1.7502237e-02   1.4447784e-03
  1.9318988e-03   8.1068349e-05
  1.4224069e-03   1.2047575e-03
 -5.2990806e-03   1.7824937e-03
 -4.3211719e-03   4.1904947e-04
  8.5289665e-03   2.6372055e-04
  3.8036716e-03   6.8426278e-04
  3.1568978e-03   7.9353229e-04
  1.2926582e-02   2.5336564e-04
 -7.0565944e-03   5.7861762e-05
  4.6390019e-02   1.4758949e-08
 -1.1428187e-02   1.0079409e-03
  8.2283523e-03   5.4544409e-05
  6.6045010e-03   6.9148385e-04
  1.3071744e-03   3.1568389e-04
 -9.2539942e-04   2.5654352e-05
  4.3992107e-03   5.0853437e-04
  6.8754209e-03   4.7643261e-04
 -1.1311901e+00   1.4007054e-06
 -4.9930816e-03   3.3310961e-04
 -7.0029683e-03   3.7946750e-06
 -1.2589508e-04   4.1206280e-04
 -7.1009109e-03   1.1108343e-04
  1.3046057e-02   1.8962160e-04
  5.4934630e-03   2.1424488e-04
  1.3274071e-02   3.2056525e-04
  4.7488321e-02   3.1966379e-06
 -4.4086738e-03   6.2169076e-04
 -5.8328984e-03   4.9886236e-04
 -2.7161468e-02   3.2957298e-05
  1.3943163e-03   3.2316076e-04
  8.1198309e-03   1.0871295e-04
  6.4526722e-03   8.1506500e-04
  7.1983412e-03   1.1911596e-03
 -1.5758448e-03   1.0296487e-04
  1.6068924e-03   9.0427749e-04
 -7.4396855e-03   6.0681888e-04
 -4.3105246e-03   9.9006097e-04
 -2.1064319e-03   3.2159100e-05
 -1.0970015e-01   1.5878608e-05
  1.5032004e-01   1.5348689e-06
  3.6037411e-03   3.2461987e-05
 -3.8115859e-03   6.3697182e-05
 -6.5794401e-03   2.3583650e-06
  7.3611781e-02   3.0814309e-07
 -9.6209370e-02   8.3691906e-05
 -1.8102257e-02   2.5729501e-05
  3.4787472e-02   8.4553135e-04
 -6.3052416e-02   4.0204591e-06
 -5.0057709e-02   4.8298389e-05
 -4.6208091e-03   5.9048853e-05
 -8.3436184e-02   4.9482562e-05
  3.7026856e-02   1.8587949e-05
 -3.2672383e-02   7.4699899e-04
 -1.3417958e-03   5.3784385e-04
 -1.7945325e-02   2.0498726e-05
  1.7741309e-02   3.2265860e-04
 -6.3688951e-03   4.6460376e-05
 -4.8841801e-02   2.9004100e-04
  7.0484844e-03   1.3154339e-04
  1.8070041e-03   4.0028905e-04
  6.6591628e-02   6.8807130e-05
 -6.8071626e-02   4.5713881e-05
  3.3598281e-02   1.9348494e-04
 -2.0404456e-02   5.6772973e-05
  8.0247894e-03   1.4902461e-05
  4.4622305e-03   3.7936945e-05
 -2.3283495e-02   1.4713428e-04
  1.0559875e-01   4.0511822e-04
 -2.9526582e-02   1.1722141e-04
  5.3792682e-02   2.3500601e-04
  5.8067340e-02   1.2207714e-04
  5.8888741e-02   4.3750169e-05
 -9.0085790e-02   8.4555177e-06
 -1.9462045e-03   7.8547157e-05
  9.7886331e-02   1.5810564e-04
  1.3123084e-02   3.7529924e-05
  5.1423190e-03   4.4404471e-04
  1.3817473e-01   2.5182080e-05
  4.0019941e-02   4.6869990e-04
  1.1497378e-02   3.3155713e-05
  5.6135558e-02   7.2275812e-05
 -2.3765476e-02   1.5612342e-04
 -1.9948885e-02   3.6669587e-04
  8.5586451e-02   1.5612366e-04
  2.8193512e-03   2.6576893e-04
 -1.1986095e-02   2.6154827e-04
  1.7486051e-02   2.1557687e-05
 -3.1308740e-02   9.0734934e-04
 -3.3741936e-02   1.5518747e-04
  7.8498451e-03   2.1984237e-03
 -9.3486756e-03   2.3507478e-04
  6.3535370e-02   1.6474839e-04
 -1.9956572e-02   4.3151515e-05
  1.3416107e-02   4.5030043e-05
  1.2300680e-02   3.8978509e-05
 -1.2474355e-02   1.6525557e-06
  1.3543141e-01   3.5946182e-06
 -2.3845057e-01   4.6271314e-05
  2.3063846e-02   2.3542532e-04
 -2.3373690e-02   2.3955182e-04
 -1.4816350e-02   1.5672320e-04
 -1.7648454e-01   1.4628844e-07
  2.4035476e-01   9.5307469e-06
 -6.8118940e-03   6.0522382e-04
  2.1409683e-03   1.1896256e-05
  9.2279147e-03   1.7339911e-03
  2.4744873e-03   3.1274851e-04
 -8.1206271e-03   9.8321273e-04
  4.1345921e-03   4.2428216e-04
  3.0563229e-03   3.3830616e-04
  3.5378882e-03   1.2020636e-03
 -2.5817682e-03   1.5823413e-03
  3.4654124e-03   4.9530639e-04
  1.4253424e-03   2.3707545e-04
  1.0274437e-03   8.6325535e-04
  5.2395901e-03   2.8122714e-04
  1.2963008e-02   1.9648611e-04
  4.9598045e-03   1.4512804e-04
 -1.3454231e-02   2.4593540e-04
  1.1984306e-02   8.9263231e-05
 -3.2779831e-03   1.0134334e-03
  1.5471827e-02   9.5510168e-04
  5.1825079e-03   6.2074931e-04
  3.3579038e-03   7.5699674e-04
 -8.2730884e-03   3.5172293e-04
  1.1616728e-02   4.0862834e-04
  6.4240623e-01   1.0146568e-05
 -5.9279618e-03   8.5871859e-04
  7.8603327e-03   3.5216566e-05
 -1.3601565e-03   2.4052654e-04
  3.2386486e-03   2.2801150e-04
  1.4439640e-02   8.4358135e-07
  4.2701350e-03   1.1410944e-03
  6.5755649e-03   6.2858409e-05
  1.2696493e-02   3.4051752e-04
  1.0088017e-02   7.6347828e-04
  6.3154474e-03   5.8541380e-05
  5.1119863e-03   5.3640688e-04
 -3.2841254e-02   6.0397551e-06
 -4.2314772e-03   1.3979321e-04
  7.8508286e-03   5.2846328e-05
 -5.7778024e-04   9.9990249e-04
 -7.7293925e-03   7.1658479e-04
  3.4003127e-03   2.9751827e-04
  8.2077421e-03   4.2653136e-04
  1.7002111e-02   1.0192791e-03
 -7.8375293e-03   7.7796169e-04
 -2.8622639e-03   6.9243618e-04
 -7.6026185e-03   4.0331521e-04
  2.9605399e-03   6.1484847e-05
 -2.3169037e-02   6.1136525e-05
 -1.9838506e-02   2.3997367e-04
  6.5079227e-02   1.1642810e-07
 -9.2985816e-02   2.3631874e-07
 -1.8727273e-02   5.1253318e-04
  8.3767638e-02   3.3155329e-06
  7.5502321e-02   6.8539812e-06
  9.5489018e-02   1.2883358e-07
  1.6882556e-02   9.0021495e-05
 -3.1331811e-02   4.8690691e-04
  1.9031892e-02   6.7337783e-04
  1.5923012e-02   9.6886692e-04
  1.2776825e-02   1.0833621e-05
 -4.9175476e-03   2.3484470e-05
  3.3465649e-03   3.3276179e-04
  2.6194144e-02   7.0915077e-05
  6.0591581e-03   6.5453799e-04
 -1.0909013e-02   7.7412667e-05
  1.0284963e-01   8.1837734e-06
  4.3976288e-02   7.7966806e-06
 -2.5890814e-02   1.1445964e-04
 -3.6904088e-03   3.5892419e-06
  7.6747616e-03   6.1005889e-05
 -2.4305522e-02   4.3031345e-05
 -4.7330428e-03   2.0156820e-05
 -6.2263787e-02   3.2321390e-04
  1.3884089e-02   3.9861199e-05
 -7.7144583e-03   3.3800025e-05
 -2.8486291e-02   6.8152636e-05
 -1.1244389e-02   4.6406858e-06
 -3.4629855e-02   8.9672205e-05
 -2.2670653e-02   3.6717296e-04
 -6.4244442e-02   5.7142478e-04
  4.2868648e-03   5.3085596e-04
 -1.4205192e-02   1.5154331e-04
 -3.2571021e-02   4.6638630e-05
 -1.9676922e-02   2.6851788e-04
  1.8399137e-03   2.4234477e-04
 -2.2210432e-02   1.7741973e-04
 -3.0018442e-04   5.3513563e-06
 -5.3699855e-03   5.9854974e-05
 -4.3564666e-02   5.2917475e-04
 -9.1817621e-03   1.2865294e-04
  5.7397215e-03   7.1070064e-04
  2.2401562e-02   3.8210448e-04
  1.0790324e-02   1.1025234e-05
  2.3123421e-02   2.2336429e-03
 -1.2376099e-02   2.6409855e-04
 -7.0065202e-05   1.6803759e-04
 -4.4389661e-02   3.3392556e-04
  4.7469524e-01   6.2542233e-07
 -7.5634639e-03   1.3514543e-04
 -5.3295069e-03   1.3704537e-04
  1.2891707e-01   3.7255228e-05
  2.7068493e-01   5.0797566e-06
 -6.3028492e-02   4.5874239e-07
  2.2022364e-01   2.4377593e-06
 -3.9590046e-01   1.3874066e-05
 -4.3005264e-01   2.5887424e-05
  1.6362462e-02   4.8449597e-06
 -1.1270816e-02   4.4751609e-08
 -4.2110877e-03   1.8179874e-06
 -1.2617294e-01   2.9292311e-08
 -5.7403233e-02   1.7918790e-04
  2.0671405e-02   4.5340887e-04
  8.1110738e-02   3.3122229e-05
  2.2245350e-01   1.1917457e-05
 -2.0977870e-01   1.1132192e-04
 -3.3665165e-01   4.0699520e-06
  1.3435960e-01   1.9579637e-04
 -3.5975422e-03   2.5270198e-04
 -2.6579264e-01   6.0229486e-06
 -2.1247312e-01   3.6423855e-06
  9.7117620e-03   3.2443641e-05
 -3.9190274e-01   2.5633051e-05
  6.9318525e-02   3.4071247e-06
  2.1645294e-01   3.5603069e-05
 -1.7720515e-02   1.7182059e-05
 -1.0130171e-01   9.4865427e-06
 -7.3844947e-02   1.5272404e-05
 -5.6326276e-01   1.0922839e-05
 -1.5736571e-01   2.1399637e-05
 -2.8074104e-01   7.0414831e-06
 -2.8408924e-01   6.2958250e-05
 -1.1128777e-01   1.2236676e-05
 -9.6571319e-02   1.8715467e-05
 -2.9807416e-01   5.3706426e-05
 -1.9614683e-01   1.4721115e-06
 -9.9169567e-02   3.8447197e-06
 -7.1433973e-01   4.7138717e-05
  1.2625204e-01   7.0343383e-05
 -1.8514968e-02   5.9169470e-05
 -8.2052186e-02   1.8512629e-06
  1.0597080e-01   1.4600803e-05
 -1.1315094e-02   3.1706924e-05
 -2.8589812e-01   2.5599336e-04
  1.4860524e-01   9.3110702e-06
  9.3903542e-02   6.5535243e-04
 -1.0710861e-01   7.3405755e-07
  6.7522876e-02   3.3045365e-04
  9.7700663e-02   4.3627119e-04
 -1.8724708e-02   3.8684777e-04
  4.8191484e-02   7.8541430e-05
 -2.4359655e-01   1.1090106e-04
  9.1069035e-02   1.6115526e-04
 -2.1834580e-02   8.5129876e-05
 -2.3867188e-02   7.1605924e-04
 -1.6733613e-02   2.9861571e-05
  4.3971914e-01   1.1992721e-05
  8.4996921e-01   5.7397915e-06
  4.4523282e-03   5.9536973e-07
 -2.9619208e-01   1.9106419e-06
 -5.9767741e-01   2.5600266e-05
  1.3662899e-01   2.1340143e-06
 -9.3465275e-01   2.1818994e-06
  4.6058345e-01   2.8022025e-06
 -1.7120305e-02   1.6107660e-05
 -2.5413811e-01   7.0205766e-05
  8.9538237e-04   6.1134364e-05
  1.0648089e-01   8.1403387e-06
 -3.3785433e-01   4.2062762e-05
  8.0321276e-01   3.7594182e-06
 -5.0547361e-01   1.6956250e-06
 -2.4179743e-01   1.9547395e-05
 -5.0919163e-01   6.6849093e-06
 -4.1999370e-01   1.7388935e-05
 -3.0151415e-01   9.3675590e-06