  1.2603293e-01   2.6375466e-05
 -4.4666430e-01   3.3563480e-05
  4.4335020e-01   1.9837160e-05
  1.2764838e+00   1.1694693e-04
  8.7082142e-01   2.4313280e-07
  3.0580017e-01   1.4599841e-05
 -1.6467679e-01   4.8795496e-06
  6.9688159e-01   2.1299873e-05
 -7.3394150e-02   1.2511644e-05
 -1.5476367e-01   2.1544953e-04
 -5.1832891e-01   3.9268143e-05
  5.5233812e-01   2.2601656e-09
  1.6347098e-01   1.2880246e-05
  2.0154112e-03   1.7353217e-05
  3.5764462e-01   3.8589246e-04
  9.6005088e-01   2.4010418e-05
  1.4172351e-01   8.3815385e-06
  3.2173374e-01   1.1752333e-05
  3.7117586e-01   3.7030874e-05
  3.0616164e-01   3.4444063e-05
 -1.6503316e-01   1.9644667e-06
 -3.9856884e-01   2.2172046e-05
  5.3393418e-01   5.2313542e-05
 -3.5934430e-01   3.3617900e-05
  6.2451559e-01   6.5437744e-06
  2.9726726e-01   2.1529297e-07
  2.0207518e-01   8.3373852e-06
 -1.6870065e-01   4.9920196e-05
  1.4963467e-01   5.3759828e-05
  3.2613462e-01   1.0561585e-04
  3.6591616e-01   2.5485211e-05
 -3.0646187e-01   5.0854378e-05
  3.2509881e-01   5.3553777e-06
  2.2487850e-01   6.9599851e-06
  1.7879527e-03   9.9584417e-05
  1.6922548e-01   1.1514877e-04
  2.2881392e-01   3.7473994e-05
  2.5003430e-01   1.3262141e-04
  1.5383323e-01   1.6085291e-05
  2.5715122e-01   9.7570490e-05
 -3.9162773e-01   1.4272086e-05
  1.8820643e-01   8.2645820e-05
 -5.4620065e-02   6.5012893e-04
 -1.4650108e-01   1.1842325e-04
  1.1132764e-02   2.9185265e-05
  1.7829765e-02   4.3585672e-04
  5.2429162e-02   1.2828023e-04
 -4.8575536e-03   1.0355305e-04
  6.4448394e-02   8.1066992e-06
  5.0603944e-01   3.7033722e-05
 -1.1801215e-02   1.8022007e-04
  5.8446784e-02   9.0721624e-05
 -1.4504930e-03   1.2603819e-05
  4.0359408e-02   1.5912068e-03
  3.4845170e-02   4.7551797e-04
  3.5826121e-02   9.7133183e-05
 -9.9791102e-02   6.0235765e-05
  1.1998215e-02   1.0569438e-05
 -3.6492724e-02   2.5663260e-04
  1.0664335e-02   2.7825774e-04
  5.5856276e-02   4.5424787e-04
  2.7386066e-02   3.2514650e-05
  1.2130310e-01   7.0761089e-05
  6.0188457e-02   6.8970847e-05
 -6.9520354e-02   5.1028428e-07
 -6.3506819e-02   8.7520806e-05
 -2.2969475e-01   4.1319319e-07
 -4.0645909e-02   1.1762120e-07
 -2.2412801e-02   1.4117928e-06
 -8.5093699e-02   1.1619787e-04
 -1.3621138e-01   2.7788245e-05
 -2.2723283e-01   1.6113295e-06
 -4.9058169e-02   1.9030951e-04
  2.2049138e-02   2.4355305e-04
 -1.7190854e-01   8.7494860e-05
 -1.9910302e-02   4.2763058e-04
 -2.7792466e-01   5.4428671e-07
  8.3187893e-03   8.5004700e-05
  9.8986020e-03   2.2427662e-04
 -1.8159045e-02   8.2631021e-07
  8.9039927e-04   3.4938697e-04
 -2.9507527e-02   4.5620839e-04
 -3.3166870e-02   8.4217245e-05
 -1.7726436e-02   2.5709317e-04
  3.2573644e-02   2.3403201e-04
  2.1439798e-02   5.8458027e-06
  1.3198118e-03   2.8769689e-04
  1.7684709e-02   9.3015505e-04
 -6.0234210e-03   2.8363793e-04
  1.2264941e-02   3.4404459e-04
 -1.0804367e-02   3.9971853e-04
 -1.2930323e-02   8.4122978e-05
  2.3406161e-01   2.7068322e-06
  7.1946988e-03   1.0149485e-04
 -2.5002137e-02   5.8140227e-04
 -1.4088751e-02   3.4073967e-04
 -1.5123872e-02   4.4175956e-04
 -6.6403717e-01   2.9908125e-07
 -1.5896061e-02   5.8170146e-04
  1.3536703e-02   8.2912488e-04
  8.5060541e-03   1.2349815e-03
 -4.0232739e-03   7.7114941e-04
  3.7726153e-02   1.0294251e-03
 -3.4210910e-03   1.3487118e-04
 -2.3118680e-02   5.4459443e-04
 -5.4595945e-03   1.6967597e-04
  1.5428694e-02   1.3849542e-04
  1.1015577e-03   1.0268763e-04
 -1.6650440e-02   4.0565887e-05
  8.7293191e-03   6.3003675e-04
 -7.7561317e-03   5.9428341e-05
  8.5364347e-03   4.2695148e-05
 -4.3397711e-04   4.7946695e-04
 -2.0190265e-02   4.8475977e-04
 -2.5553310e-02   9.6713811e-05
  2.7213883e-02   1.2827415e-05
 -2.4538597e-01   2.0012283e-05
 -5.8747800e-03   3.3718106e-04
  2.0088339e-02   3.7079048e-05
  9.7482586e-03   5.7529029e-04
 -1.3732964e-02   6.8128895e-04
 -9.1723606e-02   1.3331841e-06
 -1.3403628e-03   5.3343852e-04
  1.7694172e-02   8.4307592e-04
 -7.2014336e-03   4.8585760e-04
  1.5484341e-02   5.8747176e-04
 -3.1555316e-04   1.2477611e-04
  3.9986584e-02   3.4861430e-05
  8.6312247e-03   3.7528263e-04
 -1.0954669e-02   8.4996753e-04
  5.5967541e-03   2.6935567e-03
 -2.4220471e-03   1.8498421e-04
  3.5644069e-01   1.6606043e-08
 -1.2223241e-01   7.8522244e-05
 -4.4453254e-01   1.5446420e-06
  1.4061899e-01   1.0973831e-05
 -3.0475486e-02   5.3875872e-05
  6.2840618e-02   2.1010771e-06
  4.7629035e-01   6.0325970e-06
  3.5067767e-01   3.4880974e-05
 -2.8132692e-01   4.2185846e-05
  1.1778402e-01   2.0355360e-04
  7.4128531e-02   2.5015395e-05
  1.6533618e-01   8.7211731e-05
 -6.0332876e-02   1.2996372e-05
  6.8194652e-01   1.5096834e-05
 -1.3454351e-01   4.0263220e-04
  3.8562587e-01   8.7590954e-05
 -4.8572734e-01   6.4207421e-07
  1.0316185e+00   2.3177918e-05
 -8.6900763e-02   8.5863775e-07
  3.9796838e-01   1.7359280e-05
  1.6467072e-01   9.6892829e-05
 -6.4342752e-02   1.3800155e-04
  7.6612455e-01   6.2759318e-06
 -2.1714242e-01   4.4790690e-06
 -1.5103282e-01   1.6009315e-05
  2.8485158e-01   3.4981058e-06
  9.4204098e-02   4.9208636e-05
  5.1532138e-02   7.7658595e-05
 -1.3241324e-02   4.7882259e-05
  6.6941190e-01   2.3013290e-05
  1.6182481e-01   4.9886217e-05
 -3.3582263e-02   9.8317367e-05
  1.5908438e-01   2.3076140e-05
  3.0589607e-01   1.5912028e-06
  7.4628964e-02   1.1973557e-04
 -1.5427555e-01   3.0698568e-05
  4.4947225e-01   2.2669390e-06
  2.9562894e-01   1.1198584e-06
 -4.4820493e-01   4.3320761e-05
  2.1114491e-01   4.5329722e-05
 -4.6984097e-01   1.7997469e-05
  7.4683003e-02   3.5194596e-06
  1.1693140e-02   2.2979434e-04
 -2.2443239e-02   4.0339131e-04
  2.2046959e-02   1.8215641e-04
 -4.5229018e-02   1.7411682e-04
  9.3858339e-02   1.5308568e-05
  3.2517064e-02   7.6855409e-05
 -1.9916981e-02   4.3597454e-05
 -7.6449379e-02   2.5331724e-07
  5.3333707e-02   4.8974756e-04
 -1.9719889e-03   5.4784839e-05
  4.9470458e-02   1.3976949e-04
  5.2078363e-02   7.8964175e-04
  3.8194019e-02   3.2987463e-04
  2.0514414e-02   8.1868748e-05
 -6.6929430e-02   1.7105693e-04
  2.2964027e-02   4.6098427e-04
 -8.1452034e-02   2.6240494e-04
  1.3997949e-02   4.3076425e-04
  4.0787719e-02   8.4968844e-05
 -1.0637350e-01   5.0166186e-08
 -1.2486625e-02   1.1677392e-04
 -2.5022278e-02   5.0845778e-05
  4.2994428e-02   1.9602985e-04
 -1.1953040e-02   7.3128999e-06
  2.7863922e-02   1.0066956e-04
 -4.8504908e-02   1.8557232e-05
 -1.6419447e-03   2.2937843e-04
 -1.1230934e-02   4.4198510e-05
  3.5352107e-02   4.4980494e-05
  1.5675949e-02   1.6569137e-04
 -4.1001786e-02   2.8128611e-04
  5.0969262e-02   1.4423305e-04
 -1.9437904e-02   4.0791016e-05
 -1.0289419e-01   9.6411395e-07
  2.7241161e-02   8.6252992e-05
 -9.6606193e-03   1.4978199e-04
  6.7031914e-03   2.0019436e-04
 -5.4024510e-02   7.2019822e-05
  2.5020733e-02   2.8540805e-04
 -2.9825006e-02   2.0369199e-04
 -1.4063448e-02   2.2053115e-04
 -3.7457678e-02   7.2481921e-06
  2.4256313e-03   2.0722098e-04
 -1.5704043e-04   3.8082263e-04
 -1.0672853e-03   1.2212688e-03
  1.8379692e-03   1.0572543e-04
  4.4561091e-01   2.1188289e-09
  6.9385916e-01   3.4173368e-05
  3.6784467e-01   1.8486217e-05
 -4.3573296e-01   1.2690403e-09
 -6.6381985e-01   5.5250406e-05
 -1.1214758e+00   2.1815560e-05
  6.9368076e-01   2.1988364e-05
 -1.3437900e-01   8.9559093e-05
 -1.9480263e-01   7.5921016e-05
  9.9223047e-02   6.3658331e-04
  2.9852015e-01   7.0326838e-05
 -4.3039691e-01   6.9139155e-06
  1.6413796e-01   6.0519828e-06
 -9.6797250e-02   1.8220369e-05
 -1.4766140e-01   1.0048938e-03
  6.0946000e-01   1.7162341e-06
  1.5621957e-01   1.1102772e-04
 -4.9514404e-01   3.0765966e-06
  5.2880049e-02   3.0997082e-05
 -1.8799724e-01   6.1748885e-08
  2.0352253e-01   1.1969610e-05
 -9.0689778e-02   5.4277381e-05
  3.8270724e-01   8.4291481e-05
 -3.0598375e-01   3.5396840e-07
  2.6387942e-01   1.2023464e-05
 -2.8149706e-01   7.1051417e-08
  3.3124691e-01   5.4682518e-05
  6.5480396e-02   1.5881134e-04
 -2.6761562e-01   1.1218259e-06
  1.0125244e+00   3.0374955e-05
  1.1720356e-01   5.8881848e-05
  2.6747664e-02   1.5361914e-04
 -1.0613680e-01   1.7503429e-05
 -3.0698895e-01   2.7689700e-07
  6.5151438e-02   1.2999933e-04
 -3.1955555e-02   4.9766211e-05
  5.5921835e-01   4.8562075e-08
 -4.5601130e-02   6.7775683e-05
 -8.0632325e-03   6.1117622e-05
 -9.1010109e-02   8.8444373e-05
 -4.0263206e-02   1.4395305e-04
 -1.4640714e-01   1.7960351e-04
  4.2651996e-02   3.5325629e-05
 -2.9817098e-01   1.5850416e-04
 -2.0400533e-01   4.9793831e-05
  8.8824267e-03   3.0542873e-05
 -4.1886219e-01   2.8898121e-05
  4.4948667e-02   1.1435540e-04
  6.2921429e-01   4.5455332e-07
  2.0858352e-01   2.1670166e-05
 -2.6550964e-01   1.1592259e-07
 -1.0090131e-01   6.0243224e-07
  4.2944011e-01   2.6191450e-05
 -1.1654399e-01   1.4168017e-04
  6.6690017e-03   1.1985624e-05
 -9.2856564e-02   2.9983450e-05
  3.8243270e-01   1.0310028e-04
 -2.1059592e-01   6.6998116e-05
  3.4488079e-01   1.2881015e-04
  1.9934580e-01   1.0478972e-04
 -3.7881352e-02   3.4346351e-05
  1.4078325e-01   2.6438627e-06
 -9.7747587e-02   2.2006263e-06
  1.1330009e-01   2.9340638e-06
 -1.5103975e-01   2.6598267e-05
  1.9514216e-01   5.5577573e-05
  6.7647025e-02   4.3318258e-05
 -2.4017021e-01   4.4648218e-06
 -2.9583117e-01   1.3007684e-05
 -7.8467168e-02   1.5176814e-05
  1.7111912e-02   1.6365302e-05
  1.5830088e-01   7.6738997e-06
  4.3985635e-02   4.2277694e-05
 -8.7058149e-02   1.6399377e-05
  2.3564477e-01   3.2190244e-05
 -5.3118609e-02   5.7534290e-08
  9.7479112e-03   7.9389401e-06
  1.0260276e-01   6.6963366e-05
 -8.3757460e-02   6.6377528e-05
  6.3584065e-01   2.3581128e-08
 -1.0656525e-01   1.0291236e-04
  2.3746303e-01   5.0668285e-07
 -1.6809399e-01   1.2461263e-05
 -3.2276125e-04   3.4488278e-07
  1.0038899e-01   4.5055135e-06
 -7.3689625e-02   8.9125613e-05
  2.4866145e-02   4.7177239e-04
 -5.7217769e-02   2.5341305e-04
  2.4492575e-01   5.6151857e-05
 -8.5841440e-02   2.3109476e-05
 -3.4367323e-01   1.1547369e-05
  1.9208637e-01   7.2847535e-05
  1.3988677e-01   8.6894779e-06
 -1.1374992e-01   1.8563598e-05
  3.8740393e-02   1.5351974e-04
  5.6276250e-01   4.2038309e-06
  6.6428095e-02   9.5793301e-05
  5.7785306e-02   7.7485020e-04
 -1.3107981e-01   1.2276263e-05
  3.9013200e-02   4.4381068e-05
 -8.5957959e-02   8.0889922e-06
  1.3801758e-01   7.3500196e-05
 -1.1900245e-01   7.9419767e-04
  3.8590198e-04   1.7493090e-04
  1.6701031e-02   9.8204669e-05
  2.7476534e-01   6.2536819e-05
  2.1186797e-01   4.0112955e-05
  9.9045314e-02   2.4379300e-05
  6.4189389e-02   2.9668274e-05
 -3.3838989e-03   1.6163929e-05
 -1.5882105e-01   1.1381066e-04
 -1.8324199e-01   8.4502908e-06
 -5.6183632e-02   3.3260589e-05
 -6.7286514e-02   3.7248512e-05
 -1.0104746e-02   9.7266438e-06
 -5.0120387e-02   4.5021927e-05
 -1.4574897e-01   8.4204978e-05
 -6.0497798e-02   7.0084432e-05
  7.9100830e-03   7.1092334e-05
  2.6618836e-02   2.1809976e-05
 -3.4190625e-02   3.4854089e-05
  1.5637872e-01   4.2246655e-05
  9.8008350e-02   1.0056554e-04
 -8.4615961e-02   3.2515978e-04
  3.7026186e-02   2.6517527e-04
 -4.6179593e-02   2.7230853e-04
 -4.9611941e-02   1.8614423e-04
 -2.5890114e-02   5.6746667e-05
  5.6479834e-02   1.0367934e-05
  7.7447228e-02   3.4409306e-05
 -5.5746236e-03   4.1483069e-04
  4.8940126e-02   8.5359078e-04
 -1.6268393e-01   1.0576894e-06
  2.7455537e-02   5.1758776e-05
  1.2698171e-01   1.9542589e-05
  5.4287648e-01   5.5074375e-05
  3.8014811e-01   9.4354684e-05
  2.9189821e-02   1.6392458e-07
  1.3496545e-01   5.5997392e-05
  2.5351101e-01   5.7962916e-05
 -5.4177099e-01   3.1044474e-05
 -1.4287177e-01   1.2429287e-04
 -1.9441551e-01   5.9780205e-06
  7.9460464e-02   1.3921416e-04
  8.4567934e-02   2.4300189e-04
 -9.0497456e-02   1.5739065e-04
  2.1402203e-01   5.6557829e-04
  4.4405574e-01   1.8246073e-04
 -2.2141758e-01   2.6075510e-05
 -4.7589079e-02   4.6747286e-05
  2.8824073e-01   4.2240197e-05
  1.3766062e-01   3.9066661e-05
 -9.4991423e-02   9.8809789e-05
 -1.0268226e-01   1.9253675e-04
  3.8312835e-01   7.1509836e-05
  2.1727560e-01   2.9864295e-05
 -1.5083611e-01   3.9489256e-05
  4.7634044e-01   7.8642222e-07
 -1.7974105e-01   6.2419247e-05
 -3.2686630e-01   3.1931984e-05
  1.5664892e-02   3.1175568e-05
  8.7208438e-01   6.6811122e-06
  2.6403329e-01   1.7166345e-05
  2.1290675e-01   3.4898594e-06
  1.8078731e-02   3.6463658e-05
  6.5966032e-02   6.5623772e-06
  2.3701964e-02   8.0032296e-05
  2.2120811e-01   5.6992239e-06
  1.7362055e-01   2.1301974e-04
  1.5186876e-01   4.0514438e-04
  7.7244751e-02   2.7624264e-07
 -2.3751305e-02   6.7833163e-05
  5.9181366e-02   9.3969379e-07
  8.3221551e-03   2.3245063e-04
 -4.6410607e-03   1.1176182e-05
 -1.5147081e-01   4.1759628e-04
 -3.2646889e-03   6.1759062e-04
  5.3647980e-03   7.7468558e-04
 -1.7520122e-02   6.1773608e-04
 -1.4022214e-02   1.7463708e-05
 -6.4987908e-03   5.6313042e-04
  1.7624426e-03   9.5679355e-04
  7.6751267e-03   6.7169743e-04
  6.7792027e-03   4.5244227e-04
  5.1093986e-03   5.0762232e-04
  1.3202666e-02   5.0488359e-04
 -1.5438163e-03   6.9267763e-04
 -9.1791963e-03   2.2639903e-04
 -4.4651958e-03   8.5457449e-04
  3.8263111e-03   1.3495644e-03
 -3.2369946e-03   2.5138704e-04
  3.6184292e-02   3.9924848e-06
 -8.3980151e-03   2.4492497e-04
  2.0618008e-03   3.8014099e-04
 -9.2462758e-03   1.3647502e-03
  6.4953873e-03   5.8539148e-04
  5.2367696e-03   1.5009857e-03
  4.5074094e-03   1.9453384e-03
  2.4181444e-03   3.4404438e-04
 -5.3858943e-03   1.5741963e-03
  5.3702467e-03   2.6906483e-04
  2.1189854e-01   7.3090905e-07
  9.7332438e-03   5.4277483e-05
 -2.3690304e-03   2.7979614e-04
  2.8334677e-02   7.5498247e-05
  6.9006220e-03   7.7864395e-05
  7.5787185e-03   1.2799267e-04
  5.6609069e-03   9.3405886e-04
  5.4659904e-03   1.3076334e-04
 -4.6398565e-02   2.9055511e-06
 -1.1253462e-01   1.8415842e-05
 -2.0736111e-03   6.6407456e-04
  6.9035627e-03   1.5421957e-03
  5.5286242e-03   9.8880686e-05
  4.4561286e-05   4.6893422e-04
 -3.2437872e-03   2.2941590e-03
  7.0176125e-03   1.4866070e-03
  8.4836464e-03   7.4912485e-04
  3.0409552e-02   2.1169886e-05
 -4.5666890e-03   1.0200574e-03
 -2.5365748e-02   2.6778423e-04
  3.4711141e-02   8.6220090e-05
 -6.6206153e-03   5.7030767e-05
 -3.8073655e-02   2.8521474e-04
  3.9419729e-02   8.9469446e-05
  9.0285707e-03   1.9524670e-05
 -4.5056213e-02   3.2414508e-04
 -4.4928383e-02   9.0220601e-05
 -3.8901340e-02   2.1266261e-04
 -4.5251835e-02   5.3288689e-04
 -3.3690292e-02   3.3929801e-04
 -8.2454309e-03   2.2960361e-04
  4.1785818e-02   2.9829773e-04
  4.7956590e-04   2.2240720e-06
  8.4599830e-02   6.9526699e-04
 -2.1649491e-02   4.0677233e-04
 -1.8035416e-02   3.0866629e-04
 -9.5773991e-03   1.0276752e-04
 -2.0187004e-02   9.4366524e-06
  2.5294158e-03   3.0996569e-05
 -4.6247549e-02   1.4394865e-04
  2.0750148e-02   4.4132915e-04
  4.4431174e-03   2.4694469e-05
  4.5848005e-02   5.2903331e-05
  1.1438103e-02   3.9589235e-05
  4.8994988e-02   6.1501223e-06
 -3.9077006e-02   5.0806420e-06
  2.0567076e-02   1.3202310e-07
  3.3403661e-02   5.0247272e-05
 -2.5841467e-02   7.1164832e-05
  1.9567735e-02   2.5183181e-04
  2.5918834e-02   2.1088991e-04
 -2.4584632e-02   1.6889886e-04
  2.2339635e-02   1.4178061e-04
  4.5333165e-03   1.0536634e-04
  6.4715698e-02   1.1068784e-04
 -1.7407432e-02   2.3844623e-04
  2.8394170e-02   6.1489857e-04
  1.8372040e-02   1.5495678e-04
 -1.1698480e-02   1.0216990e-04
 -1.4345193e-02   1.0203250e-04
 -2.1009909e-02   4.5332222e-06
  1.1636376e-02   1.0219140e-03
 -2.5708646e-02   2.9777904e-04
  1.4975150e-01   1.0197757e-04
 -3.8460565e-01   1.3928638e-05
  2.3611270e-01   1.4191123e-07
 -1.7840841e-01   5.0010247e-05
 -1.0955720e+00   6.3305474e-06
 -7.7832073e-02   6.3418838e-06
  1.2225097e-01   2.8619801e-05
  5.2698487e-01   3.2426444e-06
 -4.8502967e-01   1.5516441e-06
 -1.0654140e-01   2.0494261e-04
 -3.2055739e-01   6.8884270e-05
 -1.4339675e-01   1.6910471e-04
  7.5212844e-02   9.8703866e-05
  1.4319925e-02   6.1044237e-05
  2.4615337e-01   1.1421651e-05
 -1.4972480e-01   3.1274951e-05
 -6.2358186e-02   3.4999517e-05
 -1.4469950e-01   3.7625800e-06
 -2.0519839e-01   3.1621214e-05
  4.7070044e-01   1.0513948e-05
 -1.1099932e-01   7.3749398e-09
  1.2125592e-01   7.4982192e-05
  4.0687504e-01   1.2156612e-07
  1.1845349e+00   1.0469222e-08
 -3.7078449e-01   1.1879531e-05
 -7.3562163e-01   2.5118848e-05
  2.5193847e-03   2.3742634e-06
  1.6633435e-01   3.6878610e-06
  9.6798807e-01   5.6431258e-05
  4.8901465e-02   7.3334908e-05
 -3.3272353e-01   5.1138879e-05
 -2.1940789e-01   2.6887194e-05
 -1.5767266e-01   2.1318952e-08
 -3.9377740e-01   9.3101226e-05
 -1.4579852e-01   1.3637856e-04
  2.5045097e-01   4.0896506e-05
  6.7437500e-02   8.4166153e-05
  1.6592579e-02   3.6607689e-04
 -8.1284136e-02   2.4699975e-05
  2.1724857e-01   1.2787019e-05
 -5.3591245e-01   1.6146390e-04
  5.1298179e-03   1.0605003e-04
  8.3341785e-03   6.9171534e-04
 -6.6813782e-02   1.3312058e-06
  1.5505950e-01   3.0124942e-05
 -6.4300168e-01   2.8443599e-05
 -3.4833781e-02   3.4938036e-08
  2.3883484e-01   9.9863588e-05
  2.5651505e-02   4.6029974e-05
  1.3746856e-01   4.9780272e-07
  1.9358559e-01   7.5070137e-05
 -8.5295156e-02   8.3701663e-05
  2.8406572e-01   1.0453167e-04
  1.7818925e-01   2.2859330e-04
  2.6910260e-01   1.6517362e-04
  2.2609542e-01   1.3347878e-04
 -1.7717253e-01   1.7151992e-04
  1.4273796e-02   3.1674150e-04
 -1.4323550e-01   2.3141591e-04
  2.9937488e-01   1.5727701e-04
  2.3007574e-02   3.5048233e-05
  1.7758844e-02   1.1262438e-05
 -2.8471914e-01   8.7644179e-07
  1.1485275e-01   6.7493575e-06
 -7.8941524e-02   4.7970814e-05
 -1.0357120e-01   1.8780773e-04
  1.2435123e-01   7.6559329e-05
  3.8861805e-01   5.4322165e-05
  6.2109840e-01   2.6665900e-06
  4.4902098e-01   5.4899658e-05
 -6.3562375e-01   3.0905121e-06
  1.2804529e-01   9.1161681e-05
 -9.2567965e-02   9.8641067e-07
  6.5756716e-02   9.8985416e-05
 -7.1151215e-01   1.2422923e-06
 -7.3226602e-03   9.8398450e-05
  1.1803472e-01   5.5233817e-05
  1.2839247e-02   2.7349242e-05
 -2.0942362e-02   1.0295686e-04
 -1.3786322e-01   1.4903644e-04
  8.8208430e-02   2.1651070e-04
 -5.3402584e-02   7.8209836e-05
 -4.0882267e-02   1.8092175e-04
  4.6974659e-01   7.3995204e-07
 -1.2730695e-01   1.7828675e-06
  7.5538501e-02   9.4259922e-05
  1.2377161e-01   1.0093217e-05
  1.7031059e-02   2.9853469e-04
 -1.2144786e-02   6.4375214e-05
  2.4897309e-02   2.4069750e-04
 -1.8505797e-02   1.8468384e-04
 -1.7186970e-02   1.1028766e-04
  1.0784904e-01   1.1301224e-04
 -1.1867610e-01   1.3743088e-05
 -4.0627345e-03   5.0599697e-06
 -2.6401525e-02   3.2872769e-05
 -3.1073384e-02   1.6101282e-04
 -1.1776446e-02   9.2343643e-04
 -3.8583755e-02   3.0357925e-05
 -3.6710393e-02   2.4429615e-05
  7.7329064e-03   3.4419641e-05
 -1.1403078e-02   3.7636922e-04
  2.6456129e-02   7.9089223e-04
 -1.4079739e-02   3.0041064e-04
 -1.6065042e-02   1.2079214e-04
 -2.1545326e-02   2.3974101e-04
  6.7783217e-03   1.0469332e-04
 -1.1400670e-02   1.6781286e-04
 -2.1896634e-02   1.6087321e-04
  1.2004484e-02   5.2727514e-04
  2.6899986e-02   2.2960975e-04
  2.2148365e-02   2.9990249e-04
 -1.6306559e-02   1.1228121e-04
  6.0970150e-03   1.5272437e-04
  2.6631225e-02   1.1212947e-04
 -2.9683972e-03   3.1452239e-04
  2.6150048e-02   4.0738506e-04
 -2.2543456e-02   1.6894103e-04
  3.2433778e-02   1.5123890e-04
  9.1617508e-03   3.5736125e-04
 -7.0176953e-03   1.9323966e-04
  1.0533426e-02   2.6153124e-04
  3.6101439e-03   6.2770495e-04
  1.9912979e-02   1.0952470e-03
 -7.9421382e-03   1.0574845e-03
  2.3295029e-04   1.2077147e-03
  2.5117235e-02   4.4653026e-04
  1.2842462e-02   2.1286804e-05
  1.1811056e-03   1.4900517e-04
 -4.7536199e-03   6.4797170e-04
 -6.6594207e-03   1.1831742e-03
 -5.7123359e-03   1.3225265e-03
 -6.3675322e-02   1.3297459e-04
 -3.1486750e-01   5.9881830e-05
 -2.5531939e-01   2.1317135e-05
 -1.2166676e-01   7.8254176e-05
 -5.2491613e-02   4.1948279e-05
 -7.9561673e-02   1.2364141e-05
 -2.7291216e-02   3.7082896e-06
 -3.2757208e-01   3.6195364e-05
  3.0451974e-01   1.8214692e-05
  1.6075276e-01   2.2286634e-04
  2.1557793e-01   1.1327230e-04
  9.2148557e-02   9.6555130e-05
 -2.7414724e-01   9.1257134e-05
 -2.3851424e-01   2.2729237e-04
 -1.1198135e-01   4.7676651e-05
  1.4675292e-01   1.0722446e-04
 -7.1453989e-02   5.0192179e-05
 -3.0441290e-01   7.9559533e-05
  1.1543607e-02   5.8303845e-05
 -1.8765146e-02   2.0623800e-05
  4.2196386e-03   1.1590275e-04
 -7.0078738e-02   3.9265510e-06
  2.2344434e-01   5.6031968e-07
  3.2626045e-01   5.7905851e-05
  3.2931212e-01   2.6508503e-06
 -2.4021904e-01   1.4518488e-05
  5.1104921e-01   1.6306987e-05
  1.2129922e-01   6.1981096e-05
 -4.7810242e-02   4.3250908e-05
  2.3533046e-01   7.6692540e-06
 -1.7018425e-01   5.0155475e-05
 -5.9468145e-03   1.7291715e-05
  1.0083657e-01   1.0043129e-04
 -1.2261335e-01   1.0861135e-04
 -1.0439553e-01   5.8892706e-06
 -1.2736602e-01   2.3615152e-04
  9.0718776e-02   2.2359801e-04
 -9.5245548e-02   3.1041942e-04
 -2.7275313e-02   1.0081142e-04
 -5.4103766e-02   1.2598215e-07
 -1.2087927e-01   2.5833120e-05
 -1.7576566e-02   3.4719429e-05
 -5.9581003e-03   2.0399645e-04
 -4.8484877e-02   7.6196657e-04
  7.4272184e-04   1.0347183e-05
 -1.5529583e-01   1.9987239e-05
  4.3376872e-01   4.8687696e-07
 -9.5881462e-02   1.9549720e-04
 -9.3078405e-02   5.0500250e-05
 -1.2771459e-01   7.6789307e-05
 -6.8670027e-02   2.4609451e-04
 -1.0818772e-02   1.8382687e-05
  4.7142647e-02   1.1446553e-05
 -4.6765216e-02   1.7462735e-04
 -7.1386382e-02   2.8532284e-04
 -1.9474553e-02   4.0074461e-05
  3.8722880e-02   4.1647593e-04
 -3.7581004e-02   1.2138738e-05
  9.5075861e-02   7.3965045e-04
 -9.4913011e-03   2.1860598e-05
  2.5406773e-03   2.9840143e-05
  5.9670821e-02   1.2498020e-05
  5.5041946e-02   6.7635228e-05
 -2.4984516e-01   3.7942918e-06
 -1.2708244e-01   5.6104385e-05
  2.3717709e-02   2.2530790e-05
  1.4935714e-02   3.1156298e-05
  9.8267853e-02   5.5980629e-05
 -1.4778946e-01   2.8095346e-06
  6.8578534e-02   7.6672375e-05
 -1.4862213e-02   5.7832003e-05
 -4.9598012e-02   1.2399461e-05
  4.4533554e-02   1.3634734e-05
 -4.1990943e-02   3.8297903e-06
  7.3593847e-02   6.5420854e-06
 -3.3298256e-03   1.1817855e-06
 -9.0191215e-02   8.4781586e-06
 -2.3819979e-03   1.6071166e-04
 -8.7854536e-03   3.4706233e-04
  6.8158366e-02   1.2632736e-04
 -9.2959609e-03   1.9736271e-04
  3.2398764e-02   5.2671885e-04
 -3.4845349e-01   4.1985604e-07
  1.7603863e-02   2.6411813e-04
  9.1266707e-02   9.9632962e-05
  5.1280716e-03   5.8409723e-04
  4.3038325e-03   1.8465180e-04
 -1.1162101e-02   9.0400013e-04
  2.0502646e-01   8.4671983e-06
 -8.5403316e-02   2.5125995e-05
 -4.4677028e-01   1.4558746e-06
 -1.0024570e-01   1.2052894e-04
  2.0704708e-01   6.3991756e-05
  7.9405926e-02   7.1010618e-08
 -1.6080631e-01   9.7694327e-05
  1.9916902e-01   5.9558104e-05
 -1.0430072e-01   2.1157639e-05
 -5.9274849e-02   2.3247148e-05
  3.1648893e-02   8.5271575e-05
 -3.0497644e-02   4.0995485e-05
 -6.4475670e-02   2.0397561e-05
 -2.5600842e-01   2.3985140e-04
  2.0838065e-01   5.0126644e-05
  3.2713365e-02   1.6884992e-04
  1.4490959e-01   3.3200922e-05
  1.1644673e-01   1.8091499e-05
  4.9519766e-02   2.6828260e-05
  1.5662940e-01   6.7804799e-06
  5.5158760e-02   1.3744646e-05
  7.8128718e-02   3.1250525e-05
 -6.6085838e-02   4.5338038e-06
 -3.8085234e-01   2.1907080e-07
 -1.7490795e-01   4.5343113e-05
  8.9819588e-02   5.6122975e-05
 -2.7195647e-01   1.7350074e-05
 -5.7328295e-02   8.5390144e-05
  7.3656060e-02   5.0788301e-05
 -2.2311457e-03   9.5753559e-05
 -1.0018428e-01   6.6533161e-05
  5.3498517e-03   1.2175250e-05
 -6.3448682e-02   2.5972247e-06
 -2.0154314e-01   4.4761946e-05
 -1.7344031e-01   3.8311168e-04
  9.7371347e-02   1.7659164e-04
 -1.1184591e-01   2.1698959e-05
  6.3020781e-02   2.5443657e-04
 -6.7337349e-02   4.3930828e-05
 -1.8242210e-01   3.8984035e-05
 -8.6052217e-02   6.4840344e-05
 -6.4879097e-02   1.8442127e-04
  1.7741358e-02   5.8392773e-04
 -4.3448053e-02   1.5613842e-06
 -3.3116966e-02   7.9783495e-05
  9.4269089e-02   1.0761392e-04
 -7.6113254e-02   5.0101222e-05
 -8.1062242e-02   4.4464694e-05
  4.2221919e-02   1.0126800e-04
 -2.6450643e-02   9.8083628e-06
 -1.2606841e-01   2.1575162e-05
 -3.7135832e-02   7.6280499e-05
 -5.6349173e-02   7.0018732e-06
 -5.0594155e-02   4.3519816e-05
 -8.2994625e-02   2.1709394e-04
 -5.0479200e-02   6.8109657e-05
  8.6315326e-02   1.5543849e-04
 -3.1169143e-02   2.0824597e-05
  1.0183275e-01   7.7462886e-05
 -7.8921489e-02   1.9524443e-05
 -7.0985682e-02   2.6784024e-05
  3.7541170e-02   1.2265279e-05
  3.6201276e-02   1.1736228e-07
  6.1352223e-02   2.3640601e-05
 -9.9066690e-02   1.8241126e-04
  5.9585523e-02   9.5691132e-05
 -6.3685291e-02   2.2329903e-05
  1.0117197e-02   4.8344802e-05
  1.2086125e-01   1.2654838e-06
 -5.7560291e-02   3.3596585e-05
 -8.4497586e-02   7.8454777e-06
 -4.1987985e-02   9.3468509e-05
  9.9866860e-02   6.8395297e-05
 -1.4144352e-01   9.4347770e-06
 -3.5006162e-02   1.4211700e-05
 -2.2959576e-03   1.3350515e-05
 -4.7413945e-02   8.9027431e-08
  4.5439247e-02   9.6159001e-06
 -9.3827816e-03   1.7280968e-04
  1.0044376e-01   6.8516711e-05
 -4.2011734e-02   2.4184625e-04
  6.7253552e-02   1.1196619e-04
  3.6128957e-02   3.3597928e-06
  2.6883608e-02   1.3005483e-04
 -3.5276081e-02   2.1785470e-05
 -1.5489074e-02   2.1779993e-04
  1.4596215e-02   5.5519689e-04
 -3.3782110e-02   9.7746764e-05
 -1.4767219e-02   1.0262577e-04
  4.0171932e-02   1.9350696e-04
  9.1216434e-03   7.5635115e-05
 -3.6116645e-02   1.9293967e-04
 -1.8289257e-02   4.2469543e-05
  1.2717260e-01   1.0540951e-04
 -6.4036995e-01   9.8844725e-07
 -1.0454144e-01   1.0191585e-04
 -6.8657376e-02   7.4636635e-05
 -2.9083930e-02   1.8618662e-04
 -4.9444605e-02   2.6264158e-04
 -7.7328375e-03   1.7063876e-04
  4.7605012e-02   3.9303896e-04
 -3.1930044e-02   1.5330351e-04
  6.0969044e-02   1.8273864e-04
 -1.3606087e-02   2.5814495e-04
 -2.6277006e-02   1.6593514e-04
 -2.4423810e-02   1.4968564e-04
  3.6914146e-01   6.6058135e-08
  1.1368006e-02   5.4548673e-06
 -6.0432903e-02   1.2567391e-04
  1.4913332e-01   4.6521341e-06
 -6.3294577e-03   1.1244324e-04
 -2.6920569e-01   9.6772840e-07
  4.2491746e-03   8.1809696e-05
  3.5049949e-02   1.2233942e-05
  1.6849542e-01   6.9605194e-05
 -1.9288208e-02   2.0004158e-04
  1.3944361e-02   3.4367789e-05
 -1.7685467e-02   4.6023168e-05
 -1.9716883e-02   7.0428956e-05
  3.5932340e-02   2.4833379e-04
 -3.5435356e-02   1.2540138e-04
 -2.0664065e-01   8.8085326e-05
 -7.6059178e-03   1.2376271e-04
  3.8519036e-02   2.6294470e-04
 -2.4347350e-02   1.6552185e-04
  4.3002043e-02   1.3710388e-03
  2.9935230e-02   3.7294543e-05
 -2.2777542e-02   1.9829655e-05
  6.4530753e-02   1.1323467e-04
 -1.9156403e-03   1.6926655e-03
 -1.3749460e-02   7.8657205e-04
 -2.2532256e-02   7.3800213e-04
 -1.2665848e-01   3.0513249e-06
  5.1725185e-01   2.0475255e-08
  2.8239509e-01   1.2675640e-05
 -4.0344059e-01   3.0837706e-05
 -4.3326893e-01   6.5832646e-05
 -4.2407516e-01   2.4414279e-05
  1.7952941e-02   1.6219141e-05
  2.9020378e-01   1.0940652e-05
 -1.4278464e-01   2.2451088e-06
 -2.2020603e-02   9.5885465e-05
 -1.3456836e-01   9.2375943e-05
 -9.5057294e-02   5.8737096e-06
  4.6635744e-01   1.8626174e-04
  1.1049514e-01   6.3230059e-06
  2.1326268e-01   1.1220069e-04
 -5.1110536e-01   1.3621717e-07
 -8.4176883e-02   6.0976245e-06
  2.6738519e-02   9.4799037e-07
 -1.0163865e-02   3.5489604e-06
  3.6513177e-01   1.0341519e-05
  1.7284447e-02   8.1135651e-05
  5.0373584e-01   4.2471940e-05
 -9.6187621e-01   1.1377861e-05
  1.0272712e-02   2.9451168e-05
  3.6851612e-01   8.8944507e-06
  5.7249427e-02   3.2641696e-05
 -3.0576545e-01   2.8610601e-05
  1.2990452e-01   8.3111969e-05
 -1.3719806e-02   1.1353580e-04
 -4.0244865e-01   5.1154424e-05
 -3.1453478e-01   1.2375959e-05
 -1.1393671e-01   8.9242705e-05
 -1.3896878e-01   8.8553443e-06
 -5.8667326e-01   2.5757336e-05
  8.0751687e-02   1.4288868e-05
 -6.1472960e-02   7.4270692e-06
 -6.4614689e-01   4.0018549e-05
 -5.3688753e-02   2.6375297e-04
 -2.2032239e-01   4.0767238e-05
  3.7706500e-01   7.4639662e-05
  1.7205018e-01   1.4367457e-08
 -2.4638234e-02   9.7901619e-05
  3.4257952e-02   1.4878671e-04
 -5.2636113e-02   1.9668844e-06
 -6.3350415e-03   5.3872878e-04
  7.1301959e-02   9.0137964e-06
 -9.4483234e-03   1.4972483e-04
 -1.0645011e-03   1.0103839e-03
 -1.9978115e-03   1.1265236e-04
  9.3806326e-02   1.0602117e-05
  1.6408820e-02   2.7142460e-05
  1.5309539e-03   6.5903971e-04
 -1.2131100e-02   2.2683608e-04
 -4.5743329e-03   6.1760889e-04
 -1.5597792e-02   1.1784571e-04
  7.8664273e-03   3.4139407e-04
 -1.2982601e-02   5.6359341e-04
 -6.6735120e-03   5.4538186e-04
  1.3398932e-02   3.5202611e-04
  2.0113669e-02   1.9957113e-05
 -1.1046885e-02   1.9837615e-04
 -2.1657145e-02   1.7103144e-04
 -9.3686301e-03   2.1748037e-04
 -1.2427114e-03   1.8211645e-04
 -2.7195727e-03   8.2194299e-04
  4.0627755e-03   5.3163647e-04
  3.6216062e-02   2.5304528e-06
  2.5357236e-03   2.2106348e-04
  1.3260565e-02   3.0575250e-04
  3.3530761e-03   1.9723852e-04
 -8.4509226e-03   8.8076500e-05
 -3.3292205e-03   2.0597847e-03
  2.3531010e-02   9.1720860e-05
  1.9829884e-01   8.7105309e-07
  1.9474218e-02   6.3574284e-05
 -1.7454092e-01   5.2096893e-06
 -1.6267188e-03   1.4630666e-04
 -1.8923985e-02   1.6492927e-04
  4.3507139e-03   2.7461848e-04
  5.2856882e-03   1.1852189e-03
  1.1638984e-03   8.8801468e-04
 -3.6982729e-03   1.3855523e-03
  2.5222593e-03   6.7733246e-04
  1.4205166e-02   3.0832988e-04
  1.3229677e-03   5.8764836e-04
  7.9536587e-03   1.6110073e-04
  7.1475824e-04   3.2457564e-04
 -2.9385526e-02   2.2960952e-05
  1.4767221e-01   3.1346022e-05
  4.0336397e-02   1.0771438e-04
 -1.4787755e-03   5.8098132e-05
 -3.2891974e-02   2.8839801e-04
  8.1548847e-02   3.4728753e-05
 -8.0060378e-02   2.0488445e-05
 -2.4347933e-02   3.9722986e-06
 -3.5556037e-02   2.5124961e-04
 -4.4683672e-02   9.5850351e-05
 -4.7191966e-02   3.1249964e-04
 -3.7000537e-02   2.9894995e-04
  7.9461327e-03   4.0730339e-04
  3.9002463e-02   8.3692066e-05