216
Config_type=AL-9_10.PBE Weight=1.0 Lattice="11.471857730 9.078509830 7.497865140 8.978950420 3.300794290 -13.758741870 -12.543411200 11.293845940 -0.519511680" energy=-1104.845998 Virial="90.06827 6.22514 -4.87099 6.22514 82.03464 -2.84555 -4.87099 -2.84555 80.78754" Properties=species:S:1:pos:R:3:force:R:3
Ag	     -0.20673     13.04190    -11.03489         0.004296     -0.178670      0.569949
Ag	     -0.63885     16.45039    -10.87701         0.091746      0.020325      0.157710
Ag	      2.56244     10.72050    -10.73583         0.065225     -0.049790      0.000356
Ag	     -5.21967     12.56594     -4.09873         0.054360      0.098431     -0.056198
Ag	      2.47339     14.66135    -10.95209         0.198721     -0.312159      0.670007
Ag	     -5.98854     15.48359      3.07616        -0.157898      0.008901      0.353913
Ag	     -1.79171      7.36269     -3.78645        -0.124560      0.029912     -0.923344
Ag	      5.65733      8.65149    -10.64275         0.032672      0.029409     -0.603741
Ag	     -1.88023     10.71342     -4.01307        -0.016228      0.018616     -0.036304
Ag	      5.76858     12.86259    -10.81126         0.019822     -0.035426      0.243736
Ag	     -1.79344     14.68595     -3.88445         0.089004     -0.284886     -0.507847
Ag	     -3.17775     12.89153      3.17870         0.070135     -0.058355     -0.274229
Ag	     -2.95834     16.52174      3.12533        -0.050484      0.031524      0.011666
Ag	     -4.05171     14.57028    -11.00563        -0.016538      0.004161     -0.362151
Ag	      1.68031      5.79371     -3.94847        -0.345915     -0.179292      0.695659
Ag	      8.97949      7.14299    -10.44534        -0.070294     -0.007543     -0.286135
Ag	      1.15200      8.87490     -3.87849         0.215651      0.414600      0.582553
Ag	      9.35394     11.03890    -10.52096        -0.344590     -0.034612      0.640903
Ag	      1.68357     13.36959     -3.74071         0.038781      0.102746     -0.927885
Ag	     -0.24071     11.44760      3.39916        -0.046230      0.049568     -0.270140
Ag	      1.67716     17.10840     -3.61690         0.164501      0.189120     -0.920130
Ag	      0.03951     14.61352      3.21980        -0.128228     -0.043345     -0.280136
Ag	     -0.11686     18.32949      3.15337         0.098285      0.123920      0.213487
Ag	      4.32734      3.46912     -3.82948        -0.055908     -0.078162      0.680784
Ag	      4.33978      7.10809     -3.65832        -0.010774      0.032733     -0.394639
Ag	     12.03928      8.72279    -10.57182         0.189348      0.357152      0.498029
Ag	      4.32097     10.76222     -3.68596        -0.016324      0.052636      0.531143
Ag	      3.30502      9.26621      3.24403        -0.255724     -0.048001      0.566803
Ag	      4.50467     14.57200     -3.52802         0.007822      0.033368     -0.699535
Ag	      2.94461     12.74732      3.28648         0.174173      0.008788      0.131429
Ag	      4.73897     18.29824     -3.59364         0.005909     -0.087541     -0.635924
Ag	      3.80864     17.03610      3.49049         0.235792      0.164918     -0.964314
Ag	     -8.26875     11.06298     -4.14245         0.265195      0.557626      0.390084
Ag	      7.41212      5.52845     -3.62371        -0.019236     -0.179877      0.212901
Ag	      7.39733      8.99308     -3.57993         0.000020     -0.034230     -0.172856
Ag	      6.95961      7.69012      3.49974        -0.366318      0.063466      0.558875
Ag	      7.47527     12.51733     -3.70784         0.007987      0.000986     -0.210495
Ag	      6.22176     10.98610      3.54182         0.068460      0.117039     -0.266524
Ag	      7.70382     16.25467     -3.65013         0.061655      0.095692     -0.046985
Ag	      6.64007     15.28660      3.54185         0.162778     -0.274069      0.015292
Ag	      8.34717     19.64544     -3.39178        -0.098015      0.090813     -0.126347
Ag	     -4.73457      9.17272     -4.13858        -0.551131      0.136029      1.068190
Ag	     10.79101      7.22739     -3.50669         0.203868     -0.013426     -0.220385
Ag	     10.56438     10.82752     -3.39895         0.058533     -0.044304     -0.450298
Ag	      9.83985      8.81259      3.60005        -0.060030     -0.005085     -0.061223
Ag	     10.99475     13.95772     -3.45085         0.150789      0.130988     -0.146341
Ag	      9.04895     12.50372      3.47524         0.036384     -0.120385     -0.211250
Ag	     10.85102     18.08867     -3.53705         0.067577      0.041873      0.400774
Ag	     14.04891      8.93730     -3.28939         0.111905     -0.316237      0.323081
Ag	     14.20833     12.35704     -3.35273         0.037691      0.012383      0.039901
Ag	     12.26626     10.58646      3.78267        -0.017353      0.087156     -0.429675
Ag	      2.73121      7.22521    -10.87816        -0.112097      0.061393     -0.209165
Ag	      4.73144     21.95290     -3.78886         0.031677     -0.164957      0.546783
Ag	      5.89804      5.13134    -10.59790         0.140806      0.116318     -0.582782
Cr	      7.79156     16.28785     -6.69701         0.166191      0.310427     -0.229795
Cr	      7.86248     19.99227     -6.79964         0.516829      0.280090      0.598948
Cr	     11.07572     14.26797     -6.58714         0.200927      0.352876     -0.219097
Cr	      3.37456     16.46171      0.17478        -0.954839      0.150839     -0.197716
Cr	     10.93920     18.09569     -6.80748         0.330838     -0.446695      0.752380
Cr	     -9.32458      9.43299     -0.36036         0.232699     -0.155643     -0.198403
Cr	      6.32677     10.89772      0.18215        -0.355068      0.146968     -0.243527
Cr	     14.25568     12.40753     -6.42067        -0.184076      0.210592     -0.190763
Cr	      6.45927     14.47192      0.03511         0.240484     -0.517241      0.542284
Cr	     14.09933     16.22980     -6.58451         0.120179     -0.387352      0.739511
Cr	      6.51746     18.05348      0.14840        -0.190355      1.371117      0.208689
Cr	     -6.17970      7.46352     -0.19329         0.099715     -0.364143     -0.626631
Cr	     -6.11695     11.24513     -0.32123        -0.485901     -0.470955      0.156254
Cr	      4.57689     18.25892     -6.79225         0.852152     -0.771972      0.457176
Cr	      9.57583      8.99754      0.21531         0.206073     -0.060141     -0.342127
Cr	     17.30194     10.63470     -6.39423         0.824063     -0.108505      0.210281
Cr	      9.62390     12.53424      0.28667         0.017611      0.293434      0.104967
Cr	     17.37940     14.36151     -6.48675        -0.206764     -0.133434      0.074267
Cr	      9.63200     16.30880      0.31424         0.259620     -0.637146     -0.531505
Cr	     -3.07884      5.58729     -0.16739         0.200377      0.044514      0.189667
Cr	     -1.80419     11.03341     -7.27404         0.324784     -0.423572      0.559409
Cr	     -2.95966      9.42029     -0.28523        -0.149558     -0.589806      0.509919
Cr	     -3.09007     13.09419     -0.21534         0.268849     -0.610432     -0.070231
Cr	      0.23305     18.42790     -0.16880        -0.489692     -0.961894      0.873065
Cr	     12.74853     10.96752      0.48320         0.404422     -0.387116      0.162703
Cr	     -3.46569     14.63732    -14.16370        -0.918111      0.021072     -0.408699
Cr	      1.43480      5.50217     -7.01938        -1.126336     -0.723078     -0.682793
Cr	      0.04094      3.76803     -0.09654         0.561716      0.071014      0.162682
Cr	      1.34360      9.02199     -6.97346         0.061718      0.618267     -0.052872
Cr	     -0.01923      7.35473      0.01250         1.076389      0.242068     -0.106693
Cr	      1.30655     12.80383     -6.95583         0.176480     -0.224526     -0.381425
Cr	      0.06209     11.05442     -0.08467        -0.055715      0.212009      0.028231
Cr	      0.13148     14.72856      0.02259         0.195311     -0.459530     -0.230807
Cr	      3.27951     20.29135      0.07770         0.643177     -0.741234      0.334198
Cr	      4.51203      3.43059     -6.94144         0.017413      0.326107     -0.333072
Cr	     -9.40567     13.05064     -0.30301         0.845494      0.386065     -0.685553
Cr	      4.49411      7.10834     -6.91013         0.532836      1.020030     -0.410900
Cr	      3.23416      5.53280      0.13902        -0.267529     -0.609531     -0.383168
Cr	      4.56984     10.93010     -7.01224        -0.581917     -1.161513      0.423472
Cr	      3.24155      9.15730      0.21580        -0.120670      0.128012     -0.662984
Cr	      4.52894     14.35913     -6.89414         0.394620      1.271899     -0.618205
Cr	      3.09163     12.82717      0.25012         0.465621     -0.597338     -0.374786
Cr	     -4.95962     12.82406     -7.38639        -0.303432      0.245006      0.935831
Cr	      7.68076      5.21777     -6.64694        -0.125789      0.614661      0.156166
Cr	     -6.30065     14.81872     -0.34293         0.503130      0.180482     -0.236682
Cr	      7.74210      8.92425     -6.80328        -0.753139      0.424181      0.238391
Cr	      6.29146      7.15905      0.20463         1.264074      0.756965     -0.023432
Cr	      7.68466     12.53832     -6.76566         0.447103      0.142378      0.153658
Cr	     -1.77927     14.63660     -7.07876        -0.662542      0.283904      0.271733
Cr	     10.84398      6.98807     -6.52403         0.004372      0.682515      0.123238
Cr	     -3.15794     16.47855     -0.16148         1.162884      1.064621     -0.077545
Cr	     10.98049     10.66160     -6.60507         0.359896     -0.315835     -0.223056
Cr	      1.40208     16.38684     -7.01064         0.406000      0.350100     -0.248408
Cr	     14.15046      8.89618     -6.65147         0.001998     -0.324666      0.093244
Se	     -0.75061     12.98764     -8.46300         0.492176     -0.987671     -0.386267
Se	     -1.11391     12.90749      1.28637         0.606297     -0.045149      0.235766
Se	     -0.68917     16.50069     -8.32306         0.127484     -0.243038     -0.536476
Se	     -0.95224     16.54882      1.30549        -0.203435      0.432934      0.006160
Se	      2.41149     10.90941     -8.17564        -0.042091      0.038483     -0.799649
Se	      2.00641     10.96002      1.58873        -0.120452      0.078844     -0.332305
Se	     -5.06414     13.01678     -1.65106        -0.379164      0.299818     -0.016377
Se	      3.45163     16.33831     -5.55075         0.308725     -0.123011      0.427751
Se	      2.46675     14.57845     -8.35570         0.110592     -0.336453     -0.003092
Se	      2.14326     14.65352      1.55949         0.031519      0.729518      0.112767
Se	      2.67662     18.19281     -8.21330        -0.583962      0.337470     -1.028283
Se	      2.38478     18.56341      1.63782        -1.193882     -1.475341     -0.988447
Se	     -1.95113      7.39699     -1.39327        -0.541989      0.232106      0.210254
Se	      6.46829     10.71416     -5.44684         0.658087      0.314492     -0.063438
Se	      5.57889      9.03523     -8.23812         0.453899     -0.297910      0.669506
Se	      5.37790      9.03993      1.75284        -0.171452      0.160854     -0.810154
Se	     -1.92991     11.29291     -1.56223        -0.063965     -0.420990      0.180981
Se	      6.59064     14.46008     -5.42272        -0.006490     -0.151799      0.223808
Se	      5.70340     12.58107     -8.27492         0.160006      0.787788     -0.220503
Se	      5.39397     12.78918      1.63530        -0.375126     -0.180120     -0.087925
Se	     -1.84560     14.79137     -1.45007        -0.438783      0.200987      0.287350
Se	      6.84536     18.26610     -5.34813        -0.494131     -0.548448      0.254255
Se	      5.61135     16.38059     -8.09767         0.496204     -0.436387      0.358319
Se	      5.41407     16.37456      1.52713         0.048632     -0.454997     -0.212788
Se	      5.78271     19.93183     -8.07417        -0.080756      0.606686     -0.781963
Se	     -6.03348     10.91187     -5.88442        -0.145762      0.337669     -0.733780
Se	     -3.83140     14.78342     -8.50470         0.130081     -0.554807     -0.120592
Se	     -4.25516     14.78450      1.24305         0.235786     -0.054874     -0.083177
Se	      1.21682      5.60542     -1.42334        -0.119258     -0.116744      0.581158
Se	      9.68290      8.98521     -5.18162         0.350491     -0.328075     -0.192601
Se	      8.79071      7.11681     -7.96166         0.272660     -0.708939      0.159768
Se	      8.50766      7.23342      1.67713         0.448707     -0.603232     -0.966476
Se	      1.11173      9.18202     -1.31096         0.417893     -0.043294      0.056651
Se	      9.90966     12.48069     -5.32189        -0.644268      0.176591     -0.037343
Se	      8.93252     10.75273     -7.99087        -0.239756      0.029161     -0.501619
Se	      8.34168     10.70790      1.50091         0.847045      0.472643      0.916239
Se	      1.16437     12.92148     -1.44264        -0.114352     -0.327442      1.712870
Se	      9.98130     16.21755     -5.18966        -0.251016     -0.158043     -0.508873
Se	      8.96395     14.38459     -7.88112        -0.389369      0.108562     -0.317113
Se	      8.40395     14.39320      1.55150         0.560132      0.408346      0.351860
Se	      1.26751     16.41120     -1.35466         0.276649      0.584282      1.278261
Se	     10.11386     20.02460     -5.33777        -0.947836     -0.516879      0.156846
Se	      8.88018     18.21328     -8.07646        -0.174205     -0.884001      0.017725
Se	     -2.92309      8.95219     -5.81837         0.677725      0.508476     -0.649908
Se	      0.01954     18.53478      5.80199         0.154160      0.204210     -0.740955
Se	     -2.91341     12.66391     -5.74708        -0.016676      0.795756     -0.130817
Se	      4.21170      3.54869     -1.22810        -0.051042      0.239871      0.128193
Se	      0.57123     18.36531     -5.73221        -0.793319     -0.049830      0.192833
Se	      4.35757      7.26850     -1.20756        -0.593278      0.359595      0.587337
Se	     13.14544     10.55318     -5.05677        -0.806828      0.536561     -0.673502
Se	     11.95653      8.76559     -8.02411         0.319456      0.151166      0.720376
Se	     11.64694      9.01014      1.71190         0.003843     -0.138651     -0.189113
Se	      4.17489     11.02682     -1.09059         0.378226     -0.231400     -0.476904
Se	     13.15375     14.20052     -5.13104        -0.281200      0.854347      0.290461
Se	     12.19540     12.38939     -7.95137        -0.125077      0.279525      0.424335
Se	     11.56011     12.71850      1.91356         0.500540     -0.109035     -0.045036
Se	      4.30934     14.48974     -1.07766        -0.155982      0.525062     -0.165583
Se	      1.53336      9.03338    -12.71795         0.270657     -0.532283      0.122750
Se	     12.07371     16.14797     -7.95665        -0.261002      0.068422     -0.000366
Se	      0.17941      7.27068     -5.60482        -0.178791     -0.618028     -0.737536
Se	      4.38109     18.32099     -1.16259         0.101271     -0.095978      0.371125
Se	      1.83445     12.59293    -12.67682        -0.465163      0.653577      0.098164
Se	      3.05755     16.57421      5.70242         0.420169      0.357065      1.371110
Se	      0.24659     10.93271     -5.62175         0.028820      0.042282     -0.181126
Se	     -8.20827     11.14027     -1.65919        -0.156958      0.831394      0.206165
Se	      0.26376     14.66608     -5.71700         0.276779     -0.196384      0.951956
Se	      7.45295      5.34363     -1.09812        -0.462623     -0.053040     -0.086309
Se	      3.62991     20.11682     -5.49718        -0.244615      0.085581     -0.108598
Se	      7.36764      9.03872     -1.11949         0.335964     -0.238735      0.408275
Se	     16.46586     12.50526     -4.93772        -0.925577      0.369688     -0.567682
Se	     15.40626     10.79498     -7.84831        -0.768383     -0.727330      0.027741
Se	      3.22867      1.71637     -5.58598         0.528933      0.014508      0.577876
Se	      7.67149     12.52749     -1.23442        -0.828186      0.398397      0.515694
Se	      4.78121      7.12578    -12.60470        -0.171572     -0.480612     -0.010001
Se	      6.16940     11.01275      6.04408         0.661780     -0.013039     -0.264581
Se	      3.46925      5.29791     -5.66253         0.096346      0.079673      0.182346
Se	      7.59107     16.32370     -1.13435         0.196285     -0.216861     -0.384566
Se	      4.92742     10.80592    -12.48882        -0.409726     -0.188028     -0.166362
Se	      6.33465     14.64816      5.95531        -0.004202      0.557864     -0.093808
Se	      3.48270      8.99701     -5.51343        -0.465716     -0.024423     -0.184191
Se	     -3.92392     10.97982     -8.51617         0.297602     -0.597634     -0.798021
Se	     -4.07345     11.19941      1.07509        -0.212841      0.191577      0.377004
Se	     -5.09423      9.25363     -1.51860         0.099934      0.322505     -0.702230
Se	      3.52298     12.65364     -5.53937        -0.710123      0.037282      0.401017
Se	     10.65933      7.08978     -1.03858        -0.035351     -0.082018      0.745791
Se	      6.80938     21.76152     -5.42067         0.436636      0.597196      0.277163
Se	     10.94857     10.88310     -1.00767        -1.366546     -0.563117      0.177953
Se	      7.88321      5.30690    -12.44651         0.420605     -0.305156      0.133504
Se	      9.47219      9.14590      6.05213         0.285278     -0.020619      0.512923
Se	      6.45850      3.35807     -5.39756         0.686636     -0.002118      0.074467
Se	     10.68671     14.33799     -1.02889         0.504055      0.917005      0.836702
Se	     -0.98815      5.54440      1.36527        -0.370558     -0.082157      0.135991
Se	     -1.91219      3.75217     -1.55018        -0.658575      0.165557      0.030699
Se	      6.46867      7.16972     -5.39477         0.440697     -0.117439     -0.249032
Se	     -0.66585      9.13531     -8.47343        -0.209452     -0.251014      0.041556
Se	     -0.98678      9.27149      1.40179        -0.063648      0.179349     -0.231410
Se	      1.30482     20.19447     -1.31508        -0.010454      0.869841     -0.358477
Se	     -1.45433     14.64187    -12.69634        -0.369597     -0.509034      0.154580
Se	     13.95686     12.67068     -0.86674        -0.150601      0.243902      0.185562
Se	      2.09023      3.70328      1.59408        -0.286231     -0.470838     -0.925687
Se	      1.15100      1.86878     -1.28402        -0.016264     -0.195941      0.391495
Se	     -2.80859     16.47624     -5.49730        -0.219999      0.195773     -0.769410
Se	      2.53169      7.31318     -8.37023        -0.446866     -0.364521      0.208317
Se	      2.08996      7.38237      1.44133         0.343950     -0.485169     -0.150722
Se	      4.40452     21.97634     -1.26911         0.504731      0.042031     -0.189747
Se	     -7.25721     13.07656      1.12338        -0.534699      0.141652     -0.323814
Se	      5.75912      5.40075     -8.20056        -0.544324     -0.494343      0.842842
Se	      5.36778      5.43339      1.56534        -0.662908     -0.452658      0.485620
216
Config_type=AL-9_3.PBE Weight=1.0 Lattice="11.639860330 8.858938760 7.404355660 9.127120210 3.268908370 -13.880489600 -12.248746130 11.448617540 -0.446864800" energy=-1104.439175 Virial="93.24568 1.33700 6.13379 1.33700 86.13361 -6.55182 6.13379 -6.55182 73.87189" Properties=species:S:1:pos:R:3:force:R:3
Ag	     -0.27615     12.39525    -11.02401         0.175660      0.823427      0.250746
Ag	     -0.32379     16.29652    -11.12141         0.159748      0.252205     -0.083479
Ag	      3.36002     11.06680    -10.91702         0.054455     -0.019666     -0.039530
Ag	     -4.56543     12.90503     -4.23043         0.250513      0.215579      0.401059
Ag	      3.41828     14.21452    -10.85748        -0.154288     -0.023019     -0.033246
Ag	      2.94722     17.97387    -10.93087         0.055060      0.114118      0.181757
Ag	     -2.00177      6.94668     -3.94872         0.341720      0.380902      0.366200
Ag	      5.52702      8.44966    -10.60503        -0.064360     -0.103920     -0.719643
Ag	     -1.32242     10.74307     -4.01201         0.013215      0.309145      0.474101
Ag	      6.16981     12.54205    -10.99391        -0.387352     -0.016441      0.458418
Ag	     -1.63264     14.71600     -4.07587         0.015299     -0.176809      0.395033
Ag	     -3.13095     12.99895      2.95171         0.081870      0.011434      0.076778
Ag	     -3.17243     16.64344      2.94781         0.203577      0.133285      0.608733
Ag	     -3.26480     14.89429    -11.26486         0.200181     -0.151626      0.174862
Ag	      1.51588      4.85464     -3.78201        -0.027542      0.546471      0.670557
Ag	      8.52743      8.26139    -10.16045        -0.102435      0.105850     -0.265969
Ag	      1.44428      9.53034     -3.95614         0.018818     -0.451121      0.397047
Ag	     10.06485     10.87861    -10.43539         0.099654      0.025058     -0.538596
Ag	      1.27924     12.45159     -4.02368         0.181401      0.445405      1.071537
Ag	     -0.36642     11.37381      3.30830         0.132408     -0.228317      0.304980
Ag	      1.71172     16.79814     -3.88920         0.036744     -0.141239      0.068813
Ag	      0.61405     14.44814      3.10213        -0.132187      0.008622      0.286640
Ag	      0.14280     18.29526      3.11103        -0.011067     -0.038008     -0.441804
Ag	      4.43470      3.78591     -3.81944         0.088611     -0.126479     -0.302055
Ag	      5.40591      8.66417     -3.45737         0.022277     -0.313633      0.010239
Ag	     12.20807      8.79752    -10.68207        -0.053954     -0.061461     -0.041397
Ag	      3.86637     11.06788     -3.56301         0.066449      0.107208     -0.126875
Ag	      3.52834      9.18932      3.41600        -0.165750      0.043900     -0.308595
Ag	      4.73408     14.41875     -3.57620         0.102989     -0.059334     -0.916508
Ag	      3.85181     12.27347      3.43731        -0.030055      0.035997     -0.224027
Ag	      4.66730     18.41341     -3.80601         0.163714     -0.315914      0.185983
Ag	      3.43183     16.50406      3.14701        -0.082996     -0.009266      0.118659
Ag	     -7.83199     10.86298     -4.20253         0.059765      0.346779      0.615124
Ag	      8.10111      5.26025     -3.70808        -0.013175     -0.126848      0.375943
Ag	      8.37333      8.88060     -3.51674        -0.065077      0.015114     -0.285020
Ag	      6.88036      7.40225      3.56459         0.061838     -0.009940     -0.491224
Ag	      7.89079     12.37247     -3.69087         0.033962      0.074533      0.065615
Ag	      6.90992     10.55865      3.41767        -0.326592     -0.109544     -0.134691
Ag	      8.49867     16.16168     -3.58431        -0.048990      0.060897     -0.573207
Ag	      6.75771     15.01791      3.57931        -0.058304     -0.117682     -0.164709
Ag	      7.92848     19.80521     -3.66646        -0.107186      0.028614     -0.323410
Ag	     -4.70911      9.51942     -4.20260        -0.194041     -0.187389      0.803511
Ag	     10.82912      6.77002     -3.54006         0.060805      0.058366     -0.021878
Ag	     11.11532     10.44430     -3.67032        -0.061857      0.180837      0.450455
Ag	     10.00258      8.84878      3.59878         0.058930     -0.032066     -0.584462
Ag	     11.24021     15.05746     -3.53554        -0.096932     -0.234962      0.301188
Ag	     10.00261     12.55041      3.40634         0.175486      0.109094     -0.090078
Ag	     -0.12515      9.70521    -10.78944        -0.041485     -0.345415     -0.883478
Ag	     14.33044      8.85828     -3.43234        -0.012705     -0.116713      0.146436
Ag	     14.67837     11.91265     -3.47658         0.010088      0.249479      0.291614
Ag	     12.85132     10.88562      3.53928        -0.234031     -0.216605     -0.237314
Ag	      2.28223      7.35503    -10.77067         0.288859     -0.187755      0.113616
Ag	      5.18462     21.46305     -3.69208         0.065021      0.230018      0.219791
Ag	      6.79173      5.21942    -10.35196        -0.044538      0.180040     -0.370976
Cr	      8.26041     16.14110     -6.92000        -0.010777      0.289393      0.577449
Cr	      8.33223     19.90138     -7.01812        -0.071534     -0.024429     -0.231107
Cr	     11.38302     14.28095     -6.56332        -0.348473      1.012499     -0.821929
Cr	      3.74949     16.46254      0.05654        -0.831778      0.137804     -0.180321
Cr	     11.53405     18.12833     -6.91944        -0.252880     -0.393503      0.368720
Cr	     -9.14243      9.37529     -0.32711        -0.097765      1.242625     -0.689166
Cr	      6.71758     10.80178      0.26229         0.205657     -0.283627     -0.274421
Cr	     14.53411     12.37402     -6.76702        -0.006904     -0.394197      1.020774
Cr	      6.79705     14.53067      0.17508        -0.368104     -0.262243     -0.218175
Cr	     14.42636     16.04259     -6.55430        -0.071031     -0.514202     -0.199475
Cr	      6.83533     18.19051      0.11532         0.578949     -0.016288      0.369901
Cr	     -6.04065      7.52710     -0.31133        -0.250017     -0.302485      0.973585
Cr	     -5.95133     11.15771     -0.43698        -0.041309      0.444862      0.318524
Cr	      5.15339     18.00044     -7.06898        -0.102917      0.822631      0.152414
Cr	      9.85330      8.92316      0.25262        -0.569642     -0.021206      0.217922
Cr	     17.58424     10.44898     -6.46097         0.211437     -0.559688     -0.751054
Cr	      9.90379     12.58317      0.22886         0.119172      0.290330     -0.370162
Cr	     17.67641     13.99503     -6.59183        -0.112919      0.608860      0.060716
Cr	     10.01212     16.21568      0.24804         0.134156     -0.095208      0.141666
Cr	     -2.94990      5.33092     -0.21952        -0.271331      0.887196      0.645851
Cr	     -1.49907     10.83815     -7.34415         0.357862      0.614066      0.233846
Cr	     -2.82452      9.31927     -0.34846         0.134254     -0.764281      1.439196
Cr	     -2.87331     12.95553     -0.25569         0.190453      0.308658      0.057173
Cr	      0.64179     18.28893     -0.11861        -0.047787     -0.007868      0.016923
Cr	     13.00179     10.67833      0.28116        -0.102471     -0.116634      0.101629
Cr	     11.66934      8.87465      7.31996         0.278271      0.333033      0.378696
Cr	      1.64392      5.44077     -7.04884         0.108536      0.748647     -0.616066
Cr	      0.16222      3.78270     -0.03917        -0.245000     -0.124569     -0.148517
Cr	      1.70224      8.99846     -7.05697         0.267652      0.253456     -0.167031
Cr	      0.20186      7.44110     -0.07714        -0.616319     -0.338091     -0.151469
Cr	      1.82060     12.77696     -7.10050         0.533452     -0.517913      0.005061
Cr	      0.41045     10.89856      0.02561        -0.626713      0.471660     -0.420127
Cr	      0.55432     14.65559     -0.06132        -0.645435     -1.087393      0.195688
Cr	      3.90937     20.20797      0.03788        -1.220562     -0.192067      0.082837
Cr	      4.65500      3.39022     -6.72965        -0.552789      0.918053     -0.627828
Cr	     -8.99702     13.11980     -0.41920        -0.533742      0.853990     -0.068999
Cr	      4.97136      7.11289     -6.83608        -1.027068      0.499761     -0.171272
Cr	      3.35666      5.31935      0.04871         0.457809      0.475924     -0.773558
Cr	      4.98897     10.90776     -7.06629        -0.312981     -0.208480     -0.250958
Cr	      3.55224      9.06867     -0.08838        -0.541929     -0.244844      1.104803
Cr	      5.00518     14.46406     -7.14132         0.543196      0.055248      0.335205
Cr	      3.64844     12.63772      0.21630         0.099662      0.196799     -0.287643
Cr	     -4.50095     12.88841     -7.30562        -0.034055      0.654099     -0.317253
Cr	      7.92162      5.06421     -6.91464         0.427612      0.373725      0.521481
Cr	     -5.81266     14.98272     -0.35584        -0.702334     -0.347009     -0.018627
Cr	      8.00922      8.77252     -6.90621         0.606812      0.312430      0.288319
Cr	      6.56403      7.01596      0.16420        -0.340436      0.368134      0.091370
Cr	      8.16555     12.55192     -6.74516         0.331170      0.278440     -0.627337
Cr	     -1.30301     14.55645     -7.29391         0.293622     -0.033124     -0.161185
Cr	     11.22339      6.94200     -6.89597        -0.358162     -0.258125     -0.099790
Cr	     -2.56800     16.60651     -0.17522         0.430987     -0.148619     -0.045224
Cr	     11.41776     10.63012     -6.72319        -1.232211      0.567418     -0.107089
Cr	      1.85912     16.39174     -7.16771         0.334207      0.516728      0.183398
Cr	     14.30578      8.72899     -6.71676         0.196988     -0.311830      0.499023
Se	     -0.15982     12.65580     -8.50606        -0.626339      0.266249     -0.564532
Se	     -0.77813     12.75543      1.28378         0.222875      0.761090     -0.571652
Se	     -0.20307     16.33790     -8.61662         0.371759      0.579072      0.159997
Se	     -0.47955     16.46213      1.29212        -0.373352      0.333717      0.183456
Se	      2.89440     10.79310     -8.43717        -0.132874      0.500135      0.182781
Se	      2.39529     10.92655      1.53748         0.223434     -0.378240     -0.043520
Se	     -4.92704     13.14436     -1.71425         0.475157     -0.745722      0.062572
Se	      3.98914     16.24137     -5.60273        -0.224131      0.379178     -0.124279
Se	      2.87427     14.56414     -8.41826         0.405236     -0.232580     -0.364805