  4.9646373e-04   3.0317082e-04
  6.4640399e-04   1.8108603e-04
 -2.6085874e-04   1.6562750e-04
  1.3019628e-04   2.4592789e-04
  2.8188125e-04   3.0900529e-04
 -5.1873701e-04   3.8166635e-04
 -2.4185318e-04   1.9234704e-04
  7.9891208e-04   1.3965854e-04
 -2.7563609e-04   1.7805025e-04
  3.8203003e-04   2.9143225e-04
  8.8972045e-04   4.6786619e-05
 -5.9711958e-05   8.1248836e-05
  9.6580316e-04   1.5912059e-04
  6.6705754e-05   1.5877912e-04
  2.6051959e-04   2.1564095e-04
 -2.1330430e-04   6.9981885e-05
  5.7418610e-04   2.2999545e-04
 -3.2591796e-04   2.4415393e-04
 -3.8608399e-05   1.4855647e-04
 -3.6863575e-04   1.4351775e-04
 -8.3277083e-04   1.5103474e-04
  8.5899513e-04   2.0669946e-05
 -4.5359560e-04   1.4456542e-04
  1.3742973e-04   4.2864791e-05
 -6.9152541e-04   1.6470854e-04
 -1.4957864e-03   2.4850870e-04
  4.1917578e-05   1.3062780e-04
 -5.6101003e-04   1.9141042e-04
 -3.0621151e-05   1.9476547e-04
 -3.2264835e-04   1.1593242e-04
  8.0868811e-04   1.1060550e-04
 -1.5611635e-04   4.7288899e-04
 -5.0228427e-04   2.5223134e-04
  3.1962650e-04   1.6623731e-04
  3.2537041e-04   1.8375489e-04
 -3.3379307e-05   2.9173668e-04
  2.0633679e-04   5.8258534e-05
 -3.4217301e-01   2.8105875e-04
  8.7652582e-04   1.2947147e-04
 -7.0691138e-05   1.3930049e-04
 -4.1028924e-04   1.1992107e-04
  1.8251078e-04   1.3233078e-04
  1.4775830e-04   1.0160568e-04
 -6.7506253e-04   1.6867390e-04
  3.7206148e-04   1.1738102e-04
  3.3793249e-04   1.7079090e-04
 -1.2518890e-04   1.6741935e-04
 -1.1454412e-03   1.2876358e-04
  2.4931194e-04   1.1507553e-04
 -1.3346283e-04   2.1807700e-04
  3.7753445e-04   1.8855966e-04
  3.7900951e-05   1.9170879e-04
 -1.5042954e-03   1.7379379e-04
  1.9961572e-05   2.6474011e-04
 -4.1076590e-04   1.5749918e-04
  1.1140419e-03   4.0164054e-05
  5.8972533e-04   1.9070537e-04
 -1.9056442e-03   6.3110398e-05
 -4.2253642e-04   1.8209495e-04
 -2.0916149e-04   3.8760394e-04
  6.3404369e-01   9.6668911e-05
  1.9003056e-01   2.3543378e-04
  7.7589080e-05   2.2729607e-04
 -2.0239831e-04   1.4048738e-04
  1.7817033e-04   1.6898845e-04
 -7.6667604e-04   2.6431854e-04
 -3.1328356e-04   9.3918381e-05
  5.1465427e-04   1.4431559e-04
 -1.4180290e-03   7.6524026e-05
 -1.5669223e-04   1.4126691e-04
 -2.7671893e-04   1.0977991e-04
 -9.4945921e-04   7.9451238e-05
 -1.7713987e-04   9.2862065e-05
 -1.0651164e-04   8.5827342e-05
  7.3674199e-04   1.3454593e-04
  1.4040354e-04   2.5889301e-04
 -4.8034772e-04   2.6314886e-04
  2.4817602e-04   1.7601097e-04
  1.4937905e-05   1.5811140e-04
 -3.1679013e-04   4.2596486e-04
 -9.2032424e-04   7.3539100e-05
  4.9431354e-05   1.3953984e-04
  7.5357617e-04   1.0822505e-04
  8.1243124e-05   2.1330240e-04
  1.9182872e-04   2.2256401e-04
  3.1562508e-04   1.0346904e-04
  3.4687146e-05   1.2258066e-04
  7.5600907e-04   9.6105905e-05
  6.3767453e-04   1.0240629e-04
 -1.8836903e-04   4.5504436e-05
  1.1608066e-03   2.2026872e-04
  3.9266850e-04   2.2785083e-04
  2.9577225e-04   2.8447382e-04
 -1.7687678e-04   2.6581416e-04
  2.5623420e-04   1.0767546e-04
 -8.2133256e-04   4.6310521e-05
  2.4927171e-05   1.7706014e-04
  1.9647239e-04   1.8703658e-04
 -3.6515287e-04   4.3346669e-04
  9.3047629e-04   2.7971173e-04
 -6.0809590e-04   9.3871160e-05
  3.6411260e-05   2.1561100e-04
 -5.3528592e-04   1.8368383e-04
 -7.3492742e-04   1.2315164e-04
  5.8236561e-04   2.1628950e-04
  8.5977445e-05   1.2153047e-04
 -2.4618750e-04   6.9799360e-05
  3.2232600e-04   1.1152941e-04
  6.5158110e-04   2.0209381e-04
 -1.0151918e-04   1.4153111e-04
 -1.7029773e-01   8.3548985e-05
  5.6650541e-03   1.0904342e-04
  9.6946902e-04   1.6552347e-04
  4.0820715e-04   2.5335062e-04
 -1.9879586e-01   5.5032113e-05
  1.5978169e-04   7.3634052e-05
  5.9539080e-04   9.9202378e-05
  1.4773484e-03   1.1077688e-04
 -6.1036524e-05   2.1503992e-04
 -1.4486022e-03   3.9063296e-05
  3.6859550e-04   1.1515158e-04
 -1.6095029e-04   1.5255217e-04
  3.7802750e-04   1.4473201e-04
  1.1148664e-04   1.2194769e-04
 -4.5148059e-04   8.4084459e-05
  1.2367485e-03   1.1424280e-04
 -3.9310538e-04   2.0167993e-04
 -8.2950579e-04   2.1117022e-04
 -2.4209101e-05   1.4498898e-04
 -3.0805962e-02   2.6979169e-04
  3.8734140e-04   4.3877473e-05
  1.4941712e-04   7.6042255e-05
 -2.6572973e-04   1.1916904e-04
  9.2754548e-04   1.4899063e-04
 -1.7946368e-05   1.2003638e-04
 -1.5648187e-03   1.2355197e-04
 -1.5176985e-03   1.5229534e-04
 -2.6516869e-05   1.3372136e-04
  3.0774618e-03   1.5300894e-04
 -3.5257445e-04   1.7582517e-04
 -1.2424955e-03   2.7319902e-05
 -1.4333523e-04   1.3019465e-04
 -5.5918924e-04   3.0626392e-04
  1.0593062e-03   1.6745615e-04
 -2.7746701e-04   1.0636664e-04
  1.2603895e-03   2.8596126e-04
  1.2020187e-03   2.9415160e-04
 -7.8193238e-04   1.2870743e-04
 -2.0319077e-03   2.0406648e-04
  8.7643712e-04   1.7888480e-04
 -3.2452744e-04   1.0835972e-04
  1.1424555e-03   1.4716150e-04
 -4.4060976e-04   9.5718366e-05
 -9.2055608e-04   2.1270847e-04
  4.2875268e-04   8.3058723e-05
  5.0245598e-04   1.4180427e-04
  3.9180618e-04   1.3305234e-04
  4.0538031e-05   1.4927784e-04
 -1.4466135e-04   3.2940117e-04
  3.6053530e-06   1.0116599e-04
 -1.6551389e-04   2.7242367e-04
  6.3775847e-04   1.8109061e-04
  2.3004152e-04   2.7925230e-04
 -1.0610172e-04   2.1718595e-04
 -5.3025997e-06   6.4919790e-05
 -1.0741503e-01   3.2946700e-05
  8.3079352e-04   2.1238330e-04
 -7.5374655e-02   1.0903950e-04
  2.5388378e-01   5.2110139e-05
  6.3693240e-02   2.7144764e-04
  9.6586853e-05   3.4316305e-05
  2.2912386e-04   1.6718899e-04
  2.2615657e-04   3.2522040e-04
 -1.2070360e-03   2.0051614e-04
  3.5251770e-04   1.1081552e-04
  8.2423445e-04   2.3737062e-04
 -1.9327497e-04   1.9155095e-04
  3.1445973e-04   4.4399247e-05
  1.9358889e-04   3.1509774e-04
  1.5713639e-03   3.8562668e-04
 -9.7052063e-05   1.5671029e-04
  5.6962046e-04   2.7001023e-04
  2.0768286e-03   5.7380093e-05
  1.2719454e-04   3.4441306e-05
 -3.7151445e-03   3.4536116e-04
 -2.4284775e-04   9.9606717e-05
  1.6648186e-03   1.5546731e-04
 -9.0487441e-04   1.5544190e-04
 -1.0199286e-03   1.4192748e-04
  2.4252675e+00   1.9219935e-04
 -3.4415521e-04   3.5628647e-04
  3.2306017e-04   7.9427467e-05
 -9.9967676e-04   1.4789552e-04
 -4.3008072e-04   1.4782982e-04
  6.7004716e-05   1.6143058e-04
  8.7632093e-04   1.4398902e-04
 -2.6236547e-04   1.5923343e-04
 -2.3316806e-04   1.4476800e-04
  1.7080197e-04   1.8064457e-04
  2.6632095e-04   2.2634090e-04
 -3.4446281e-04   8.3153813e-05
 -7.5440289e-04   2.4409432e-04
 -3.6190209e-04   1.0707112e-04
  1.2852770e-03   8.3038954e-05
  4.6550736e-04   1.4408174e-04
 -1.2756893e-04   1.2431749e-04
  4.8677839e-04   5.4084780e-05
  1.7835081e-04   1.7008412e-04
 -4.2170970e-04   1.1595963e-04
 -1.0772397e-04   2.3245193e-04
 -1.3286874e-04   1.1440549e-04
 -2.1635597e-04   6.6123008e-05
  8.0300895e-05   2.4057107e-04
 -4.7388140e-04   1.2256877e-04
 -9.1441223e-05   8.6822212e-05
  9.4312745e-05   9.6673328e-05
  9.4813120e-04   8.9363399e-05
  4.4967164e-06   1.7842947e-04
 -1.6859789e-01   2.0609744e-04
  1.5465062e-02   1.0596897e-04
  2.0317894e-03   3.6947167e-05
  1.8456767e-04   2.2555771e-04
  1.6931437e-03   1.0779576e-04
 -2.4122321e-03   6.7977810e-05
  1.3391658e-04   1.6917661e-04
 -1.3978426e-04   1.4693711e-04
  2.6076596e-05   2.8811538e-04
  4.7384013e-04   8.0880403e-05
 -4.8141973e-04   1.2876037e-04
  1.8426121e-04   2.5866380e-05
 -1.8978423e-04   4.6793630e-05
 -6.5099617e-04   2.7249099e-04
 -1.4502928e-04   2.4924337e-04
  2.7365136e-04   1.7527457e-04
  6.7689602e-04   2.3840227e-04
 -9.3215494e-04   8.2481856e-05
  4.3802921e-04   1.2081007e-04
 -1.4851608e-03   2.3361788e-05
 -3.1472184e-04   4.3018572e-05
  5.5894110e-04   2.3321861e-04
 -7.6527527e-04   9.3118222e-05
  1.3548679e-04   8.8400506e-05
 -5.0524005e-04   1.2338407e-04
 -1.2379600e-03   3.9652368e-05
  5.5555865e-04   6.3064072e-05
  3.1042006e-04   1.6296870e-04
 -1.3793792e-04   2.1795256e-04
  2.8168978e-04   1.6860469e-04
  3.7205222e-04   1.3362717e-04
  4.0803466e-04   6.7942659e-05
 -3.8177753e-04   1.2072750e-04
 -8.1828069e-03   6.0454232e-04
 -2.5538215e-04   2.8499946e-04
 -9.3656978e-05   2.1469998e-04
 -2.8951160e-04   9.2943483e-05
 -1.6679322e-04   8.1281578e-05
  3.0391943e-04   1.8173503e-04
  3.1955814e-04   1.3072624e-04
 -2.3848331e-04   1.5396462e-04
 -7.9797179e-04   7.9895959e-05
  3.6510554e-04   1.7711750e-04
  3.2877906e-05   1.5975260e-04
 -3.7736865e-04   1.3133348e-04
 -3.8600549e-05   1.7272375e-04
  2.6051048e-04   1.0721764e-04
  2.7032319e-04   1.2603101e-04
 -7.9596313e-05   1.0637810e-04
  4.7266327e-02   2.0149389e-05
 -2.2912012e-05   1.9063930e-04
 -1.8130516e-04   5.8585290e-05
  6.5509148e-04   1.5530003e-04
  3.5722321e-01   4.8951845e-04
  9.4136417e-01   2.8471244e-04
 -5.3630956e-02   2.3391294e-06
 -1.9563826e-02   3.7254905e-04
  2.4531014e-02   7.6073062e-05
 -6.8862486e-01   7.4089592e-05
 -3.8475150e-01   4.0389321e-05
 -3.8141569e-03   1.3186043e-04
  1.0522599e-03   1.7334866e-04
 -1.1460514e-04   1.8372497e-04
 -4.7790242e-04   2.5121184e-04
  2.5323546e-03   1.1594474e-04
 -1.5979558e+00   2.7804388e-04
  1.3761913e-03   8.2635241e-05
  5.0152926e-04   1.7020160e-04
 -1.6966560e-04   1.3729381e-04
 -6.2069489e-04   1.8708991e-04
  1.4457025e-04   7.4566684e-05
  4.5426228e-04   2.5748950e-04
 -5.9773889e-04   9.7953984e-05
  3.9197798e-03   1.0921952e-04
 -5.3585455e-04   1.5974184e-04
  5.7714537e-04   4.3750384e-05
  2.3063209e-03   1.3253557e-04
  4.0071388e-04   1.9135435e-04
  1.6653443e-03   2.0898340e-04
  1.9604752e-03   3.4372884e-04
 -4.6335618e-04   1.8843627e-04
  6.1896828e-04   7.4268362e-05
  2.7195184e-04   1.1454029e-04
 -3.4151098e-04   2.9178496e-04
  6.2621717e-04   1.4227969e-04
  1.0293736e-03   1.8689546e-04
  3.4028522e-05   5.8266713e-05
  2.1322838e-04   1.6041582e-04
  6.0254792e-03   3.5832349e-05
 -9.0159920e-05   8.2978506e-05
  2.3871864e-04   2.3068747e-04
  9.4934563e-05   6.1252416e-05
 -5.0079718e-04   6.8204761e-05
 -5.4213160e-04   1.5935021e-04
  5.4122029e-05   1.4705007e-04
  9.5740595e-04   6.9555819e-05
  2.2940305e-05   2.0166428e-04
 -2.1013393e-04   1.6301878e-04
 -1.2043433e-03   2.1053330e-04
 -7.6688238e-04   2.2029442e-04
  1.0842315e-03   1.9446296e-04
  7.4855197e-04   4.1221935e-04
  5.0951721e-06   1.1827797e-04
 -4.6398875e-04   1.8635392e-04
 -9.6767122e-05   2.0541967e-04
 -2.7377947e-04   1.7412794e-04
  5.1257119e-04   1.5416606e-04
  2.3884462e-05   1.6441656e-05
 -1.2845267e-04   2.0786063e-04
  5.8371152e-05   2.1532123e-04
  3.3501501e-04   1.5866684e-04
 -1.3894738e-04   1.5006939e-04
  7.3864212e-05   1.2581686e-04
 -4.7377092e-04   8.1713610e-05
 -1.4839067e-04   1.9077701e-04
 -1.2695472e-04   1.9718328e-04
  1.5935510e-03   1.8277430e-04
 -1.7087709e-04   1.5277247e-04
  1.4888414e-03   1.5372045e-04
 -1.6009170e-03   1.2433437e-04
 -2.2511280e-04   6.5050779e-05
  1.2928327e-04   1.8882092e-04
  1.0416292e-05   1.4926816e-04
 -3.1631312e-04   1.6661349e-04
  1.4343990e-02   2.3624655e-04
  7.5862990e-05   8.7344233e-05
 -9.0463946e-05   1.5450837e-04
  6.5406311e-05   1.2705290e-04
  4.7053280e-04   1.4109041e-04
  1.5108925e-04   2.6893019e-04
  7.0342305e-04   1.5611749e-04
  8.3591513e-05   1.8900300e-04
 -6.2575581e-04   2.1627168e-04
 -9.3333411e-04   2.4603840e-04
  2.0019217e-04   5.5180437e-05
 -5.0395547e-04   1.4171582e-04
 -1.1632448e-03   2.8691195e-05
 -2.2412272e-05   1.8034267e-04
  3.2942020e-04   5.2548312e-05
 -3.4299056e-04   1.5026687e-04
 -4.1118506e-04   1.0938969e-04
  6.3679455e-04   9.2115646e-05
  6.5536652e-04   2.2292366e-04
 -4.3899083e-04   1.9434081e-04
 -5.2580595e-05   1.3988801e-04
  4.2090187e-04   6.3925101e-05
  2.3874041e-04   1.3950709e-04
 -3.2062829e-04   1.2452471e-04
 -1.1106852e-03   2.2565502e-04
  2.8015309e-04   2.7872826e-04
 -7.1789327e-05   1.4609737e-04
  6.3344705e-05   9.4590760e-05
 -1.0505474e-04   1.9756064e-04
  3.7839677e-04   2.2903153e-04
  3.9441491e-04   1.3805536e-04
  3.6223952e-04   4.2841231e-05
  9.6964766e-04   2.9081348e-04
 -3.3645530e-04   2.3103022e-04
  2.6195904e-04   1.9941953e-04
  7.0846523e-04   4.0235525e-04
  2.1919787e-03   1.3018792e-04
  9.3944466e-01   3.6308123e-04
  6.8744439e-01   1.1055062e-04
 -2.1886156e-01   3.9777486e-05
  1.2273923e-04   9.2443348e-05
  3.1198296e-03   3.9202860e-05
 -3.1362709e-03   6.7902220e-05
 -7.0960857e-02   1.1680748e-04
 -2.0505038e-01   4.7641256e-04
 -5.7107212e-05   2.4786007e-04
 -4.8552564e-04   2.4558583e-04
 -2.3200508e-04   1.1398900e-04
  1.6591642e-03   9.3018112e-05
 -5.5756344e-04   4.0276852e-04
 -1.2664674e-03   2.4628820e-04
 -5.3954050e-03   3.2246721e-04
  4.8531449e-04   1.2552038e-04
  1.3785647e-03   1.6570087e-04
  3.3105203e-04   3.6221519e-04
  7.5822196e-04   2.1138151e-04
 -6.0356187e-04   3.6155066e-04
  7.2822993e-05   1.0261420e-04
 -2.1309524e-03   2.6524215e-04
  3.1618506e-04   1.4725592e-04
 -1.1330369e-03   4.2625979e-04
 -5.8724621e-04   2.4131010e-04
  6.3378387e-04   2.0027616e-04
 -8.9133246e-04   3.2769869e-05
  2.1662944e-04   1.3754994e-04
  1.0211265e-03   1.8497955e-04
 -4.2155778e-04   1.0970697e-04
  1.3356424e-05   4.4281060e-05
 -9.6427539e-04   1.1111773e-04
  4.0952884e-02   2.5314701e-04
  3.6340024e-04   1.9511554e-04
 -3.2421926e-01   3.9272021e-05
  3.6952138e-04   1.4042589e-04
 -4.7173587e-04   1.4795869e-04
 -5.6620460e-04   9.2808783e-05
 -1.4991296e-03   8.5382911e-05
  6.8662113e-05   1.7004204e-04
 -5.8926584e-04   6.9944996e-05
  9.6369695e-05   2.4868536e-04
 -1.7271572e-04   1.5487944e-04
 -7.8433281e-04   1.5844073e-04
  7.9900667e-04   8.1555867e-05
  2.7189055e-05   1.2947676e-04
 -2.3132314e-03   1.8310682e-04
  1.7617326e-04   9.8221230e-05
  3.6322125e-04   1.9370588e-04
 -1.5386255e-03   7.8361198e-05
  1.9963682e-03   2.5634698e-04
 -3.7573371e-04   1.7369278e-04
 -2.5228038e-04   2.3031578e-04
 -1.1874246e-03   2.7560277e-04
  3.0649873e-05   2.4966354e-04
  1.4966304e-04   2.4649961e-04
  2.8243958e-04   1.2432910e-04
 -7.7214942e-04   1.5757667e-04
  6.3332479e-04   3.1616617e-04
  1.7196422e-04   7.7753721e-05
  6.7652791e-04   1.4394659e-04
  7.1966270e-04   1.4433893e-04
 -2.5102327e-04   1.8079765e-04
  4.7057634e-04   2.5052897e-04
  6.8392442e-04   1.7025886e-04
 -9.6398080e-04   7.2520721e-05
 -8.8727206e-04   1.6740002e-04
 -1.9576022e-05   1.8264339e-04
  7.0164871e-04   2.2270432e-04
 -2.4534285e-04   1.1792818e-04
 -5.1281007e-04   8.6204811e-05
  1.7617929e-05   1.1177347e-04
 -5.7853438e-05   1.4971940e-04
 -2.5815555e-04   2.5661002e-04
  1.5791623e-04   1.2667839e-04
 -2.6206073e-04   1.7294117e-04
  2.9960717e-04   1.6791445e-04
 -7.4752758e-04   2.0965975e-04
 -1.0982330e-03   1.2930745e-04
 -3.5572873e-05   2.5694224e-04
 -3.8079749e-04   1.5075844e-04
  1.2509482e-03   8.8683693e-05
 -1.7808891e-03   1.2168691e-04
  1.1345977e-03   2.7381777e-04
 -7.1136048e-04   8.5781568e-05
  8.8252756e-04   1.8096097e-04
 -1.5614898e-04   2.9168034e-04
 -1.0985859e-04   2.8420956e-04
 -1.3145505e-04   1.5500833e-04
  3.2822671e-04   2.1370496e-04
 -1.1333110e-03   1.1690361e-04
  3.5075805e-04   1.1540461e-04
  6.8485935e-04   8.3898296e-05
 -2.0274663e-04   2.8674651e-04
 -6.8037561e-04   1.1979481e-04
 -5.4074975e-04   3.1613320e-04
 -8.2468224e-04   1.7281724e-04
 -3.2649373e-04   1.4386496e-04
  4.1672681e-04   2.1529038e-04
 -3.8044626e-04   1.4530958e-04
  2.9886668e-04   1.5958883e-04
  7.0631079e-04   7.1712639e-05
 -1.0913570e-03   1.2542620e-04
  3.3639186e-05   1.4309811e-04
  7.4843119e-04   7.9332138e-05
 -9.4536162e-04   2.0367067e-04
  1.8185884e-04   1.9826894e-04
  3.5304829e-04   1.1960238e-04
  1.0910389e-04   1.9463271e-04
 -7.8290020e-04   1.0044488e-04
  1.4192668e-04   7.6043158e-05
 -7.3338614e-04   2.4949608e-04
 -4.8098715e-05   2.3251045e-05
  1.0029300e-03   2.1680610e-04
 -1.0342887e-03   2.2104230e-04
  1.0035830e-03   1.9241046e-04
 -6.4909237e-04   1.2343441e-04
  8.4894098e-04   1.5632174e-04
 -8.0405670e-04   1.3947474e-04
  1.1918433e-03   1.1983663e-04
  2.6154285e-04   1.1630187e-04
  1.4603780e-04   1.7139885e-04
  2.4563635e-03   1.0748018e-04
 -1.3529025e-03   2.3079687e-04
 -2.1451841e-04   1.2000529e-04
 -1.4738501e-03   2.1155288e-04
  3.6018671e-04   6.8323199e-05
  3.2255347e-04   7.3748095e-05
  5.8573583e-04   1.5265952e-04
 -1.4033962e-04   8.8829023e-05
  2.4325511e-04   2.7978531e-04
 -4.7618165e-04   1.1864204e-04
 -5.8394787e-04   1.4034708e-04
 -5.0094211e-04   2.2061309e-04
 -3.8263312e-04   1.1345214e-04
 -9.7087650e-06   7.7246703e-05
 -2.4012283e-04   6.2303858e-05
 -1.5040246e-05   8.3555416e-05
 -7.0380082e-04   5.6324709e-05
  5.0758698e-04   2.5792437e-04
 -2.2252349e-04   1.8857034e-04
 -9.8238781e-04   8.8771420e-05
 -5.9417856e-05   1.6249149e-04
 -2.0297246e-04   2.0304922e-04
  7.3461747e-04   1.8278896e-04
  8.0869574e-04   1.9932121e-04
  1.0947951e-03   1.8056500e-04
  1.2660534e-05   2.0234821e-04
  2.9596791e-04   6.5372638e-05
  2.3800100e-04   2.3591080e-04
  4.1340495e-04   1.2699600e-04
 -3.2801874e-04   2.0418527e-04
 -3.8317914e-04   1.4945332e-04
  7.3230796e-04   1.0971438e-04
 -3.1905502e-04   3.5080724e-04
  4.9995811e-04   1.6095134e-04
 -3.2656080e-06   6.8990681e-05
 -5.7204888e-04   2.8561341e-04
 -6.7220174e-04   1.2534941e-04
  1.4626380e-03   1.3871289e-04
 -5.6727917e-04   1.7265987e-04
  5.3824449e-05   1.4434640e-04
  3.8855162e-01   1.6594431e-05
  3.3300179e-01   1.3182866e-05
 -5.5872675e-02   3.0468251e-05
 -8.2813919e-04   2.5076477e-04
 -1.9386618e-01   1.3777647e-04
  3.7916949e-01   1.7908551e-05
  3.8566068e-02   1.7292840e-04
 -4.9515814e-03   1.5169077e-04
  1.0749651e-03   2.6607211e-04
  1.2802290e-04   9.9718658e-05
 -1.7887048e-04   1.5253019e-04
  1.5022384e-03   3.0617675e-04
 -6.1379299e-03   8.3523322e-05
  1.1305975e-04   3.0271086e-04
 -8.9472346e-04   2.0277679e-04
 -2.1998645e-04   2.1227816e-04
  1.4020721e-03   4.3863745e-04
  1.6782843e-04   1.9226059e-04
  2.1835785e-04   1.2388299e-04
  6.3962227e-04   1.8513386e-04
 -1.9838686e-04   1.0167298e-04
 -3.9105152e-04   1.9839959e-04
  9.0774651e-05   2.3787591e-04
  3.3810904e-04   9.8882127e-05
 -3.5632416e-04   3.5458565e-04
  6.1971217e-04   2.4576209e-04
  7.5763179e-04   1.7964198e-04
  2.7127200e-05   2.4647862e-04
 -6.4353494e-04   8.5743362e-05
 -1.7919658e-03   1.2753715e-04
 -8.1584072e-01   5.6938436e-05
  1.5909069e-04   1.4233195e-04
  6.5902469e-04   2.3627844e-04
 -3.7015986e-04   1.3427419e-04
 -1.7944824e-04   1.1286567e-04
  9.0391416e-04   1.1467658e-04
  7.2948053e-05   7.1602866e-05
  2.6816601e-04   9.7045791e-05
 -2.2547881e-03   1.0995687e-04
 -5.0013611e-04   2.7178761e-04
 -1.5839644e-03   2.4618817e-04
 -6.1525323e-05   2.7346888e-04
  8.9797541e-05   1.3734982e-04
 -2.9628788e-04   1.3537162e-04
  1.2159658e-03   2.2909870e-04
 -7.8001685e-06   1.0593023e-04
  4.3396425e-04   1.2776005e-04
  3.4606332e-04   3.4436412e-04
 -1.1623309e-04   9.2118105e-05
 -1.4049371e-03   2.2225930e-04
  1.1086625e-03   6.7799141e-05
  6.3724257e-04   2.6932303e-04
 -3.4445355e-05   1.6880562e-04
  9.5454231e-04   1.7322518e-04
 -2.0641061e-04   8.7205786e-05
  8.6208363e-04   1.0165828e-04
  2.3205321e-04   2.9946552e-04
 -3.5451783e-04   1.3232154e-04
  6.6176646e-05   1.2006250e-04
  2.3696868e-04   6.7762754e-05
  2.9950758e-04   1.6948742e-04
  6.5799209e-04   8.9892113e-05
 -1.4418751e-04   1.3989591e-04
  1.8931700e-04   9.6069060e-05
 -1.4718925e-04   1.2982736e-04
  7.7933649e-04   1.6457090e-04
  9.4648340e-04   1.1091660e-04
  8.3272293e-04   2.4117238e-04
  1.0385175e-03   1.2546634e-04
 -1.4293917e-03   8.0098871e-05
 -3.3712978e-04   2.0604566e-04
 -8.6177286e-05   1.1212324e-04
  1.0161214e-03   8.8763358e-05
  2.7200321e-03   9.7608900e-05
  5.5881572e-04   4.5879427e-05
 -1.9853422e-03   3.2112683e-04
  5.0078752e-04   9.3956216e-05
 -4.5990196e-04   1.4782598e-04
 -7.3001109e-04   1.4510519e-04
  3.7912003e-04   2.5992622e-04
 -7.4849080e-04   3.3874044e-04
  7.7891292e-04   6.6319320e-05
 -4.5773704e-05   6.0979979e-05
 -3.5991159e-04   2.9272781e-04
  3.5193956e-05   1.9586008e-04
 -4.5996177e-04   1.0977179e-04
  3.8652652e-04   2.7376108e-04
 -2.5310193e-03   9.5135190e-05
  1.9587793e-04   7.4835727e-05
 -7.1076560e-04   3.4062838e-04
  5.7864015e-04   1.4912452e-04
  6.6893076e-04   1.7519845e-04
 -1.1179344e-04   2.4180155e-04
 -1.0721562e+00   8.7591594e-05
 -1.1777529e-04   3.1094460e-04
 -2.7260944e-04   2.3469886e-04
  9.9196208e-05   1.3110867e-04
  3.9168587e-04   1.3581048e-04
 -5.8212905e-04   7.1171984e-05
  1.7038391e-04   1.6149493e-04
 -2.5451198e-04   2.4605470e-04
  4.2019473e-04   1.1314715e-04
  2.7941234e-04   1.8526586e-04
  1.3955400e-03   2.0155641e-04
 -5.1062467e-05   1.6543489e-04
  3.7267708e-04   5.5096076e-05
 -1.1684695e-03   2.2262712e-04
 -1.0983286e+00   6.9386323e-07
  6.8881601e-01   5.6347202e-05
  7.5338590e-01   1.9352428e-05
  7.1747494e-01   3.7423763e-04
 -3.1150952e-01   1.1541791e-04
  5.2415383e-01   5.1224637e-05
 -1.6469755e+00   1.1364168e-05
 -6.7872542e-01   4.8381089e-06
 -2.3019795e-01   1.5056512e-04
  6.8565941e-04   1.6937380e-04
 -8.0316636e-04   1.6448250e-04
 -2.6196495e-04   1.7714882e-04
  2.6336780e-03   2.8678516e-04
 -1.5781876e-02   3.6694089e-04
 -4.3980847e-04   1.2864180e-04
 -5.9897333e-01   6.6893757e-04
  4.6525829e-04   3.5223500e-05
  1.4361748e-01   1.0061633e-03
  4.3450806e-01   5.1504315e-04
  1.3237606e-05   1.1411012e-04
  1.2285387e-04   2.6827838e-04
  4.0194666e-04   5.9926359e-04
 -5.0934119e-04   7.3477859e-05
  6.7201755e-03   4.5758893e-04
 -1.2102318e-03   1.9586874e-04
 -2.1410889e-04   3.2349999e-04
  2.5972846e-01   1.3642199e-04
  6.1498910e-01   2.6500685e-04
  1.6807760e-03   1.4052635e-04
  5.5071706e-04   8.6866850e-05
 -8.5284881e-02   9.9046843e-04
  5.2788109e-04   1.5027782e-04
  1.2968255e-03   3.0903349e-04
 -8.4989809e-04   1.6507306e-04
 -3.1928462e-03   9.7868477e-05
 -7.1282103e-04   1.7182599e-04
  4.6543080e-02   1.9308929e-04
  3.6437501e-04   8.8171539e-05
 -7.3185947e-04   1.7807465e-04
  1.3303147e-03   2.6233552e-04
  4.0574372e-04   1.9020404e-04
 -2.6137430e-05   7.2822710e-05
 -1.2530232e-04   8.2886196e-05
 -6.2629551e-04   1.7613651e-04
 -2.1120571e-04   1.7171942e-04
  1.6569182e-03   1.2232730e-04
 -7.9007167e-04   1.7953619e-04
  5.1709148e-04   2.8380938e-04
  9.5876734e-05   2.3501716e-04
  2.9628241e-04   6.8074485e-05
 -2.3810439e-04   6.2865001e-05
 -7.0291233e-01   9.5809548e-05
 -1.2163093e-04   3.4654987e-04
 -1.1275951e-03   1.3424132e-04
 -5.5856821e-03   6.3487350e-05
  3.1730926e-01   1.5457151e-04
 -6.4903550e-02   1.3280198e-05
 -1.0697003e-01   1.2291102e-04
  7.1286321e-02   1.2337559e-04
 -2.1719160e-03   1.2016202e-04
  1.3040693e-01   4.9652626e-05
  1.8261990e-02   1.4324694e-04
 -1.3459079e-01   6.5695109e-05
  1.5329705e-03   2.9269667e-04
 -1.1679783e-04   6.4435553e-05
  1.0077696e-03   1.9628386e-04
  3.8105303e-01   3.7518278e-04
 -7.9206899e-02   2.6541570e-04
  3.0053375e-02   7.8539284e-05
 -5.8407695e-03   1.0699871e-04
  2.4221262e-03   4.5440538e-05
  2.9763797e-01   1.1549921e-04
  1.7168538e-01   3.8677923e-04
 -5.0155868e-05   1.6197377e-04
  3.8170570e-04   1.6554316e-04
  6.2872111e-03   7.2648079e-04
 -1.3789688e-03   4.4769353e-05
  3.9070737e-02   2.0413059e-04
 -7.0842645e-05   7.2117029e-05
 -2.0545201e-01   5.4128730e-05
 -4.7648158e-03   1.3833908e-04
  8.3026372e-02   8.1091697e-05
  2.4062226e-04   8.4644802e-05
 -4.6055095e-05   1.4078278e-04
 -1.5254400e-04   2.2260078e-04
 -2.7584014e-03   4.3844708e-04
  1.2959847e-01   8.8765379e-04
  1.8513891e-01   3.3825831e-04
 -6.0667848e-04   1.7246838e-04
 -5.8762234e-04   7.6793920e-05
  5.5387925e-02   7.0922062e-05
  2.7892768e-04   1.4936614e-04
 -2.7412281e-05   5.3332944e-05
  7.4653180e-05   2.2245159e-04
  9.7099488e-05   2.2981809e-04
 -4.7638502e-02   7.5875799e-04
  5.9698582e-02   3.0516082e-04
  7.3327974e-04   1.5436820e-04
 -8.7491603e-04   3.2200755e-04
  9.7455835e-05   3.6852594e-04
 -1.2562210e-04   2.8240247e-04
  6.4957520e-04   3.1981411e-04
 -9.5408043e-04   1.5013698e-04
 -1.9704220e-03   1.9241714e-04
  6.8737601e-04   2.9882326e-04
  4.1825871e-05   1.5083792e-04
  3.0358194e-04   1.1676476e-04
 -2.0826494e-03   1.4033710e-04
  1.0811604e-03   1.3854122e-04
 -9.0820529e-04   2.3609436e-04
 -2.1427432e-04   3.8713450e-05
  6.3449854e-04   1.7771800e-04
  1.4312481e-04   2.4142191e-04
 -1.1309192e-03   7.1521339e-05
  4.2122146e-04   1.4251578e-04
 -5.8251369e-04   1.2758965e-04
 -9.1645576e-04   1.4591665e-04
 -3.4660148e-04   2.8202933e-04
 -6.8997921e-05   1.2973785e-04
  1.6793464e-01   3.6612084e-05
 -1.0156118e-03   1.8275206e-04
 -1.7259129e-04   2.4848621e-04
 -4.7729537e-04   1.3081613e-04
 -7.9047115e-04   6.1560422e-05
  3.0623536e-04   1.6529692e-04
  2.6024165e-04   1.2499031e-04
  4.6460601e-04   1.3885264e-04
 -3.2559832e-04   2.6564233e-04
  1.0595920e-04   1.7541218e-04
  3.2744432e-04   2.3357962e-04
 -9.1243739e-04   2.2320390e-04
 -2.6325061e-04   1.5225826e-04
 -4.6892729e-04   1.8497874e-04
  9.4482006e-04   2.3906177e-04
  7.7393535e-04   1.6165679e-04
 -8.0253731e-04   1.2687728e-04
  8.2888844e-04   2.4245273e-04
  2.4216148e-04   3.1147257e-04
 -3.4601133e-05   4.4507782e-05
 -2.1818969e-04   2.0826202e-04
  2.2616917e-04   1.1103522e-04
  1.7325717e-03   1.2736476e-04
 -1.6370501e-03   1.9100093e-04
 -1.9352928e-04   1.2657723e-04
  1.7644541e-04   7.3841860e-05
 -8.5243135e-04   2.8332989e-04
 -1.0525329e-03   1.1329340e-04
  2.5355984e-03   8.2623723e-05
  4.2084174e-04   3.0224797e-04
  2.4306292e-03   2.2241066e-04
  1.6092212e-04   2.2406156e-04
 -6.6421292e-04   3.4971666e-04
  6.2909944e-04   9.7537195e-05
 -5.8932370e-04   1.0645364e-04
  2.1521941e-05   3.0628443e-04
 -4.6656281e-04   1.4604205e-04
 -7.2618906e-04   3.0129772e-04
 -2.7250839e-04   1.3396240e-04
  1.3657927e-04   1.6275143e-04
  9.7072094e-05   2.4989826e-04
 -5.7518581e-04   1.1574218e-04
  1.1639393e-04   3.8185677e-05
  2.5284578e-04   1.6520117e-04
  7.5923046e-04   1.7995198e-04
  1.9349129e-03   1.4608521e-04
 -1.1912332e-01   7.8421399e-05
  1.1106053e-03   9.1084621e-05
 -2.6861770e-04   2.3665940e-04
 -7.7590369e-02   3.1866239e-05
  2.7519665e-04   4.0131746e-04
 -9.3888387e-04   2.7628129e-04
 -3.0775371e-04   2.2437288e-04
  9.2414266e-04   3.2800224e-05
  8.3113788e-05   2.2867281e-04
  2.3718279e-02   9.9752695e-05
  1.4994965e-03   9.9539713e-05
  1.7314858e-05   1.0695439e-04
  3.5104272e-04   2.2473365e-04
 -1.0039433e-03   1.2809625e-04
  6.3759787e-04   2.9245313e-04
  8.7498617e-04   5.1492138e-05
  1.1319006e-04   1.3579561e-04
  1.0515909e-03   4.4309458e-05
 -3.2571901e-05   1.4706897e-04
  6.6052773e-04   1.4829935e-04
 -2.3325582e-04   2.4239466e-04
 -3.7231956e-05   2.3506953e-04
 -7.1226817e-04   8.2073864e-05
 -1.0116631e-03   7.4288029e-05
  6.4294680e-04   1.7113055e-04
  3.4392357e-04   2.2015163e-04
  6.0830358e-04   1.6347464e-04
 -2.5674844e-05   9.5343770e-05
  3.3932811e-04   1.8838176e-04
  2.1881348e-04   1.5689262e-04
  3.0908873e-04   2.3560690e-04
  1.1914287e-03   1.0491792e-04
  1.3753031e-04   1.2028540e-04
  7.9358672e-04   3.2723593e-04
  1.9505495e-04   2.3579667e-04
 -7.3702002e-05   2.5724241e-04
 -8.3060883e-04   2.4093602e-04
  8.9120516e-04   1.7973353e-04
 -5.3735066e-04   1.2077657e-04
  7.4154628e-04   1.1154512e-04
  5.5421883e-04   1.1484970e-04
  1.7752881e-04   1.1549232e-04
 -6.2302506e-04   1.5438380e-04
 -4.2890813e-04   2.9580740e-04
  1.3029076e-04   1.0409678e-04
 -2.2533352e-03   8.2063496e-05
  3.8698062e-04   1.2220355e-04
  2.0545426e-04   2.1745540e-04
  3.5025712e-04   1.7571135e-04
  1.7228312e-03   1.1806432e-04
 -2.7181557e-04   2.0083968e-04
 -1.1958370e-04   2.7606529e-04
 -1.6535111e-04   1.5295151e-04
  5.8015925e-04   1.2527601e-04
  3.4335355e-04   5.3280382e-05
 -2.2302050e-04   1.8507108e-04
  1.6059597e-04   1.5473396e-04
  9.5408235e-04   2.8770379e-04
  8.0559999e-05   1.4709067e-04
  5.7231158e-04   2.2517191e-04
 -1.6241102e-04   2.6911465e-04
 -6.6052534e-04   9.4097704e-05
 -3.8813724e-04   2.0363183e-04
  4.9072158e-05   9.9775927e-05
  1.4629943e-04   8.9114605e-05
  2.7352251e-04   1.9460179e-04
 -8.0075301e-04   1.1542557e-04
  5.8712077e-04   6.0217342e-05
 -1.9465522e-04   1.9464640e-04
  9.0899470e-05   3.7680184e-05
  5.3638837e-04   7.6945515e-05
 -5.2419456e-04   9.0842856e-05
 -6.6759792e-04   1.0323818e-04
  1.3137233e-04   1.4619181e-04
 -4.4750320e-04   2.7808268e-04
  5.1129854e-04   5.9583548e-05
  1.6700444e-05   1.1394270e-04
 -2.4786382e-04   2.1021052e-04
  2.4528505e-04   7.3022638e-05
 -7.6901750e-05   1.8482932e-04
 -1.0525357e-03   1.3843516e-04
  2.1327796e-04   1.2195187e-04
  9.4823830e-05   1.2789444e-04
  7.4389995e-05   1.6769802e-04
 -7.3327123e-05   1.4056585e-04
  8.3686836e-04   1.2940823e-04
 -9.8218455e-04   2.3688196e-04
 -8.5149141e-04   8.7803441e-05
  1.5898461e-04   2.3473904e-05
  6.0155557e-04   1.5629093e-04
 -7.7709291e-07   9.5607713e-05
  3.9337383e-04   1.4406304e-04
  7.0269406e-04   1.5174881e-04
 -6.8447989e-05   1.3840145e-04
 -1.2629926e-03   7.1422779e-05
 -8.4131036e-04   2.7995973e-04
 -1.3477416e-04   2.0371824e-04
  3.6755821e-04   1.2856873e-04
  3.2614148e-03   1.2096447e-04
 -1.0496812e-04   2.2153364e-04
  1.6195544e-04   2.3075679e-04
 -4.1540992e-04   2.7360726e-04
  4.1469981e-04   1.9795155e-04
 -2.3965967e-04   8.1540304e-05
  4.5795194e-04   1.5272979e-04
 -4.6178055e-04   2.0864235e-04
 -8.2000377e-05   2.1777149e-04
  1.9270143e-01   1.1314781e-04
 -2.5251065e-03   6.1401610e-05
 -9.4434654e-04   1.1624548e-04
 -1.9249073e-04   2.4579719e-04
 -1.2892295e-04   1.1141569e-04
  1.1074330e-03   2.4233884e-04
 -8.3052012e-04   1.9536658e-04
  1.4372353e-04   1.6334157e-04
  3.4955455e-04   3.3918626e-04
  5.5581811e-05   7.1274742e-05
  2.5306912e-03   1.9334401e-04
 -3.6753914e-05   1.5267350e-04
  1.8206369e-03   1.6898585e-04
  1.1008993e-03   1.7443953e-04
 -2.0218643e-04   1.1775779e-04
 -1.9312558e-04   1.0524938e-04
 -1.0551680e-03   1.0583414e-04