80
energy=-574.759279 Config_type=var-cell_10.hse Weight=1.0 Lattice="13.917360000 0.000000000 0.000000000 -6.958680000 12.052787314 0.000000000 0.000000000 0.000000000 11.943880000" Virial="-58.22985 0.55456 1.71209 0.55456 -59.90882 2.13570 1.71209 2.13570 -51.95684" Properties=species:S:1:pos:R:3:force:R:3
Ba	      0.01754      4.02283      4.45854        -0.230263      0.104436     -0.174057
Ba	      3.54951      2.03556      1.54469        -0.037534     -0.040883     -0.114367
Ba	      0.03570      3.96635     10.39280         0.002133      0.081707      0.152160
Ba	      3.49995      1.99633      7.47546         0.133427     -0.092214      0.086907
Ba	     -3.49917     10.05672      4.41429        -0.166726     -0.168647      0.007041
Ba	      0.07226      7.97605      1.44909        -0.106741     -0.116514      0.006382
Ba	     -3.43076      9.94588     10.49468        -0.114521      0.080279     -0.006601
Ba	      0.03974      8.04833      7.47988        -0.083853     -0.006434      0.008400
Ba	      6.91846      3.91545      4.46108         0.309958      0.173683     -0.065792
Ba	     10.44162      1.97730      1.54338        -0.064145      0.211865      0.155663
Ba	      6.94543      3.95229     10.37844         0.023473      0.003536      0.102281
Ba	     10.38552      1.95088      7.41929        -0.051701      0.108798     -0.163655
Ba	      3.51830     10.09870      4.47280         0.180660     -0.093141      0.079476
Ba	      6.87551      8.06500      1.44705         0.265049     -0.048082      0.105296
Ba	      3.38310      9.98471     10.44689         0.174603      0.003778     -0.065799
Ba	      6.89365      8.10547      7.42140         0.102047      0.022000     -0.108420
S	      0.06950      2.02929      1.50534        -0.166745     -1.107577     -0.244866
S	      3.54048      4.02607      4.50476        -0.120135      0.456475      0.082675
S	      1.82367      5.05221      1.60890         0.442319      0.254200     -0.543161
S	      1.70351      0.92257      4.50411        -0.214335      0.242636      0.119160
S	     -1.74199      5.07331      1.57604        -0.511498      0.205579     -0.441072
S	      5.24381      1.00608      4.48457         0.787662     -0.401146     -0.269504
S	      0.00255      1.98040      7.52436        -0.042031     -0.081553     -0.260820
S	      3.45426      3.98201     10.44260         0.087218      0.972392     -0.021153
S	      1.81624      5.14149      7.52142        -0.256670     -0.244346     -0.332069
S	      1.70859      0.88490     10.46341        -0.654015     -0.202777     -0.105028
S	     -1.84871      5.07278      7.55584        -0.265495     -0.002024     -0.408416
S	      5.17505      0.98648     10.49147         1.124959     -0.484845      0.004666
S	     -3.46100      7.97247      1.60904         0.051370     -0.242698     -0.705228
S	     -0.01788     10.13824      4.56843         0.040762     -0.000067     -0.696075
S	     -1.69799     11.09837      1.49335         0.821446      0.302592      0.259316
S	     -1.78222      7.02575      4.42598        -0.595424     -0.532144      0.814405
S	     -5.20200     11.03261      1.52180        -0.813810      0.718657     -0.108918
S	      1.78160      6.98997      4.52398         0.616182     -0.341214     -0.127774
S	     -3.42697      8.07488      7.50311        -0.145751     -1.299617     -0.133130
S	      0.01129     10.07704     10.44882        -0.120324      0.782223      0.053788
S	     -1.68737     11.16810      7.48051         0.276291      0.059419      0.042810
S	     -1.67043      6.95564     10.42180        -0.951390     -0.370371      0.404888
S	     -5.22111     11.11192      7.48226        -0.776425      0.424814     -0.094160
S	      1.76550      6.97047     10.44431         0.670053     -0.359935      0.139987
S	      7.01734      2.05638      1.50997        -0.063237     -1.383027      0.043371
S	     10.44249      3.96077      4.44331        -0.042105      1.502582      0.652073
S	      8.73572      5.02919      1.51972         0.763865      0.437994     -0.354275
S	      8.75259      0.97471      4.54561        -1.120861     -0.564998     -0.300235
S	      5.20680      5.01234      1.53357        -0.678969      0.526093     -0.380666
S	     12.20735      1.10937      4.40915         1.019783     -0.753023      0.264085
S	      6.94649      1.96716      7.46103         0.110638     -0.317569      0.217834
S	     10.47953      4.02668     10.50829        -0.077946      0.683334      0.020902
S	      8.61075      5.05965      7.58996         1.177173      0.631730     -0.167458
S	      8.65775      0.94597     10.45011        -0.376397     -0.007153     -0.035904
S	      5.13916      5.07466      7.47277         0.088736     -0.261732     -0.165394
S	     12.24107      0.93201     10.40040         0.282957     -0.080048      0.307362
S	      3.47544      7.98875      1.41912         0.098005     -0.578548     -0.054135
S	      7.03659     10.13212      4.48486        -0.332755      0.786925      0.163642
S	      5.34749     10.96858      1.51373         0.221379      0.717380      0.031167
S	      5.19109      7.02531      4.43855        -0.650611     -0.416273      0.016079
S	      1.73757     11.08051      1.41279        -0.801992      0.379382      0.502034
S	      8.73135      7.04578      4.44110         0.693785     -0.628783      0.631820
S	      3.58489      7.99920      7.46439        -0.267821     -0.707149     -0.042513
S	      6.91634     10.01539     10.45672         0.005379      1.005082      0.004646
S	      5.22893     11.03153      7.39153         0.892152      0.779748      0.053929
S	      5.15341      6.98254     10.34673         0.095380     -0.186543      0.775294
S	      1.63838     11.06728      7.44466        -0.123200      0.160422      0.317012
S	      8.83484      7.04472     10.50510         0.333464     -0.298876      0.178696
Ti	     13.85066      0.01069      0.00833         0.376535     -0.473681     -0.593035
Ti	      0.03639      0.05566      2.96452         0.156188     -0.318006      0.436370
Ti	      0.02300      0.08221      6.02778        -0.324268     -0.749133     -1.290831
Ti	      0.04647      0.05663      8.88864         0.212720     -0.827906      1.266744
Ti	     -3.42557      5.98740     11.92487         0.227319     -0.134526      0.495786
Ti	     10.40968      6.06158      2.94402        -0.190070     -0.317938      0.503205
Ti	     -3.47104      6.04378      6.01534        -0.104799      0.211281     -0.918947
Ti	     10.40711      5.99605      9.01141        -0.190269      0.221833     -0.535891
Ti	      6.93672      0.02288     11.92521        -0.218865      0.112494      0.362149
Ti	     -0.00399     12.00763      3.01583         0.145256      0.471063     -0.618281
Ti	      0.00095     12.00969      5.94590        -0.053207      0.487553      0.721962
Ti	      6.99334      0.04832      8.98135        -0.339621     -0.076049     -0.612759
Ti	      3.48336      6.08650      0.00966        -0.350430     -0.143704      0.633314
Ti	      3.54499      5.94613      3.05307         0.226586      0.234203      0.146236
Ti	      3.44072      5.94331      6.04200        -0.117234      0.878097     -0.146626
Ti	      3.57698      5.97633      9.00512        -0.322723      0.024632      0.036006
80
energy=-574.719379 Config_type=var-cell_11.hse Weight=1.0 Lattice="13.917360000 0.000000000 0.000000000 -6.958680000 12.052787314 0.000000000 0.000000000 0.000000000 11.943880000" Virial="-53.74894 3.01336 -1.71950 3.01336 -56.35511 -0.54742 -1.71950 -0.54742 -49.44380" Properties=species:S:1:pos:R:3:force:R:3
Ba	     -0.00105      4.02962      4.42262         0.070522     -0.183581      0.036613
Ba	      3.46657      2.03237      1.49932         0.226234     -0.094940     -0.080940
Ba	     -0.07599      4.02024     10.42571         0.174260     -0.022044     -0.050265
Ba	      3.43643      2.00759      7.43839         0.101914     -0.117063      0.117938
Ba	     -3.51890     10.00973      4.48281         0.148094      0.015957     -0.089400
Ba	      0.04609      7.97490      1.52847        -0.082094      0.503001     -0.084613
Ba	     -3.59528     10.09064     10.50828         0.289325     -0.124035      0.055280
Ba	      0.01641      8.03305      7.50427         0.118399      0.339079      0.079577
Ba	      7.01877      4.09519      4.48592        -0.010654      0.101121     -0.033278
Ba	     10.49895      2.08221      1.43470        -0.218641     -0.269798      0.038193
Ba	      6.97863      3.94381     10.41876        -0.143399      0.305625      0.034346
Ba	     10.41333      2.05543      7.42149        -0.147467     -0.015874     -0.029029
Ba	      3.53434      9.97212      4.52106        -0.281051      0.083396      0.037195
Ba	      7.01491      8.14745      1.55958        -0.001576     -0.290125     -0.164605
Ba	      3.48142     10.04095     10.38705        -0.148435     -0.204824      0.021380
Ba	      6.94043      8.17597      7.43798         0.018889     -0.435007      0.113734
S	      0.06617      1.96815      1.52646        -0.198303     -0.369397     -0.174055
S	      3.44889      4.13304      4.42488        -0.043035     -0.059728      0.328925
S	      1.83782      5.03611      1.45359        -0.180073      0.040889      0.426935
S	      1.74089      0.97155      4.45251        -0.925337     -0.309491      0.395269
S	     -1.81183      5.04861      1.52168         0.613801     -0.094603     -0.231286
S	      5.18903      0.93352      4.44173         0.639231      0.107815      0.277323
S	     -0.04309      2.07153      7.51544         0.320531     -1.267810     -0.283175
S	      3.51612      3.97515     10.45621        -0.264981      1.158196     -0.105632
S	      1.86036      5.15096      7.47282        -0.607432     -0.488491     -0.243018
S	      1.67390      0.95115     10.45694        -0.344088      0.023821     -0.197459
S	     -1.86611      5.07884      7.48170         0.336329     -0.069588     -0.037768
S	      5.15315      0.92252     10.44230         1.067447     -0.128072     -0.063161
S	     -3.48965      8.03399      1.52322         0.256501     -1.048432     -0.127617
S	     -0.08431     10.01471      4.42921         0.188327      0.926010      0.265265
S	     -1.65726     11.01140      1.58707         0.380387      0.655423     -0.458020
S	     -1.80893      7.00300      4.48155         0.189309     -0.330390     -0.088702
S	     -5.26527     11.06398      1.46976        -0.664778      0.355551      0.097498
S	      1.81390      7.07196      4.47252         0.363689     -0.526087     -0.020756
S	     -3.45703      8.02839      7.45516         0.064641     -0.782352      0.088089
S	     -0.03422     10.06360     10.42581         0.049950      1.060550     -0.194137
S	     -1.65334     11.13809      7.46357         0.164909     -0.089054     -0.319386
S	     -1.82051      7.04324     10.45004        -0.153861     -0.347492      0.133115
S	     -5.23231     10.96059      7.54428        -1.104257      0.997101     -0.302632
S	      1.82179      7.10848     10.41499         0.261056     -0.824086      0.356507
S	      6.94825      2.00907      1.53211         0.013379     -0.634683     -0.374414
S	     10.30095      4.10008      4.49480         0.517780     -0.018966     -0.094217
S	      8.80842      5.09854      1.51330         0.207695     -0.013971     -0.159048
S	      8.73059      0.89006      4.48252        -0.960819     -0.241932     -0.091111
S	      5.23286      5.00883      1.51803        -1.059651      0.781514      0.254192
S	     12.15479      0.99911      4.49137         1.061288     -0.339023      0.186797
S	      6.95956      1.87488      7.44047        -0.029964      0.445863     -0.178539
S	     10.49474      4.04868     10.46472        -0.104134      0.833623      0.140345
S	      8.70646      5.05952      7.43342         0.762900      0.362173      0.293504
S	      8.70082      0.95271     10.36270        -0.601033      0.088115      0.235280
S	      5.20216      5.13518      7.48797        -0.339977     -0.096054     -0.352364
S	     12.22172      0.98737     10.37580         0.455062     -0.359801      0.266538
S	      3.42057      8.03309      1.46814         0.109943     -0.835877      0.338680
S	      6.94605     10.16209      4.45722         0.003765      0.008391      0.380701
S	      5.21982     11.12815      1.49311         0.653134      0.344476      0.081270
S	      5.19704      7.04473      4.51170        -0.577224     -0.394345     -0.173986
S	      1.59930     11.11673      1.39984         0.023615      0.223385      0.039576
S	      8.76026      7.00528      4.47793         0.431257     -0.059491      0.029760
S	      3.45750      8.02887      7.49907         0.152097     -0.725009     -0.166483
S	      6.99358     10.09007     10.50791        -0.342701      0.824360     -0.268248
S	      5.20540     11.11025      7.42514         0.914081      0.314780      0.089453
S	      5.15000      7.01341     10.50734        -0.532567     -0.480716     -0.007010
S	      1.74612     11.07358      7.43312        -0.827239      0.346243     -0.072632
S	      8.66881      7.08453     10.46335         1.188372     -0.875579      0.045771
Ti	      0.03622      0.06284     11.90319        -0.062135     -0.152114      0.482974
Ti	      6.92767     11.99062      2.99793        -0.015651      0.350521     -0.506692
Ti	     13.85759      0.01878      6.00608         0.069035      0.584006     -0.408442
Ti	      6.93826     12.03501      8.95216         0.122206     -0.171092      0.184879
Ti	     -3.44124      6.05691      0.01558        -0.933477      0.692498     -0.279080
Ti	     -3.38102      5.91290      2.97277        -1.037336      0.688753      0.121076
Ti	     -3.39707      6.05471      5.92723        -1.055546      0.443675      0.594001
Ti	     -3.44561      6.08246      8.97998        -0.995604      0.201750     -0.432879
Ti	      7.00408      0.11294     11.92982        -0.248677     -0.530913      1.149769
Ti	      6.87998      0.00474      3.10631        -0.019138     -0.477962     -1.230105
Ti	     -0.01083     12.04720      5.97025         0.392005     -0.531552      0.893729
Ti	      6.97477      0.03954      8.97828        -0.237251     -0.964919      0.103066
Ti	      3.38869      6.06952      0.04253         0.684182      0.354815     -1.483735
Ti	      3.50290      6.03880      2.96511         0.710870      0.404627     -0.359043
Ti	      3.46375      5.96565      5.91529         0.313207      0.859124      0.185928
Ti	      3.50634      5.96504      8.90310         0.669969      0.570135      1.016494
80
energy=-575.066513 Config_type=var-cell_12.hse Weight=1.0 Lattice="13.917360000 0.000000000 0.000000000 -6.958680000 12.052787314 0.000000000 0.000000000 0.000000000 11.943880000" Virial="-58.95344 1.72450 -1.29497 1.72450 -54.92591 -0.60041 -1.29497 -0.60041 -51.10647" Properties=species:S:1:pos:R:3:force:R:3
Ba	     -0.01826      4.01944      4.49204         0.014354      0.057647     -0.027879
Ba	      3.45760      2.03798      1.48030         0.053411     -0.049168      0.063049
Ba	     -0.00247      3.96623     10.43071        -0.018529     -0.014527      0.031846
Ba	      3.47484      1.99991      7.39323        -0.016659     -0.023943     -0.028497
Ba	     -3.44167     10.09708      4.54720        -0.075383      0.001425     -0.119304
Ba	      0.07699      8.09001      1.44054        -0.014697     -0.149946      0.096468
Ba	     -3.51507     10.08501     10.47557        -0.173423     -0.011737      0.052361
Ba	     -0.06339      8.01069      7.48607         0.037279     -0.236124     -0.046911
Ba	      6.97544      3.99953      4.48352         0.012635     -0.229207     -0.118533
Ba	     10.42176      2.04291      1.54156        -0.082781     -0.027626      0.006470
Ba	      6.86252      4.04744     10.51653         0.264529     -0.004877      0.104770
Ba	     10.44678      1.96015      7.44252        -0.058620      0.205551     -0.037319
Ba	      3.43129      9.97930      4.57405         0.039911      0.119939     -0.083472
Ba	      6.95532      8.05045      1.51840         0.044402     -0.024364     -0.157576
Ba	      3.38007     10.02432     10.39777         0.200041     -0.063444      0.097136
Ba	      6.96370      8.01867      7.54436         0.069386      0.053109      0.157456
S	      0.05147      2.05263      1.46127         0.059347     -1.131469      0.236433
S	      3.51437      3.99941      4.61167         0.038836      1.169111     -0.477381
S	      1.87100      5.05003      1.53422         0.112122      0.092539     -0.255715
S	      1.72769      1.03279      4.51254        -0.669977     -0.544283     -0.166690
S	     -1.80517      5.06137      1.52869        -0.445983      0.361415     -0.219389
S	      5.20814      1.09487      4.51098         0.725736     -0.889081      0.050284
S	     -0.02706      1.96687      7.47195         0.135643     -0.343470      0.027462
S	      3.52687      4.06786     10.41737        -0.099672      0.369219     -0.256612
S	      1.73469      5.02728      7.39954         0.885106      0.506716      0.282337
S	      1.73918      0.95252     10.51414        -0.749313      0.022329     -0.316795
S	     -1.76422      5.12071      7.46575        -0.622970      0.099274      0.017800
S	      5.24922      0.95844     10.40976         0.704959     -0.370022     -0.049739
S	     -3.52922      7.99986      1.47494        -0.022551     -0.843091      0.106798
S	      0.02894     10.16613      4.41456        -0.319138     -0.500899      0.602219
S	     -1.65733     11.07359      1.53995        -0.223842     -0.030728     -0.325643
S	     -1.72544      6.97532      4.46492        -1.111346     -0.248729      0.061008
S	     -5.19460     11.00205      1.41498        -0.954476      0.723807      0.424882
S	      1.75239      6.95334      4.47289         0.820448     -0.174089     -0.099721
S	     -3.48257      7.93453      7.52620         0.064551      0.189469     -0.386475
S	      0.02177     10.12559     10.49732        -0.068879      0.056267     -0.532151
S	     -1.72593     11.11399      7.42045         0.359183     -0.167080      0.377128
S	     -1.75604      7.06305     10.49012        -0.669179     -0.374371      0.098732
S	     -5.24063     11.11583      7.56807        -0.627193      0.204294     -0.508344
S	      1.70557      6.96485     10.38364         0.887250     -0.405712     -0.034203
S	      6.96954      1.96565      1.49773        -0.086672     -0.707094     -0.079213
S	     10.35544      4.06703      4.48363         0.181970      0.622908      0.188190
S	      8.76166      4.94588      1.52454         0.615008      0.760672     -0.146941
S	      8.58077      0.91624      4.49101        -0.033047      0.020619      0.087758
S	      5.16151      5.03615      1.50265        -0.287114      0.126056     -0.062458
S	     12.24738      0.99862      4.50302         0.660717     -0.347260     -0.239374
S	      7.00258      1.93294      7.41171        -0.008073     -0.499994      0.514524
S	     10.46891      4.04715     10.41469        -0.004437      1.027199      0.236885
S	      8.71447      5.09612      7.53172         0.545997      0.140853     -0.250803
S	      8.71262      1.00338     10.53212        -0.889951     -0.550329     -0.476149
S	      5.12687      5.05380      7.40362         0.295614     -0.066280      0.465464
S	     12.19904      0.97383     10.45186         0.670647     -0.359908     -0.148803
S	      3.49866      7.95295      1.44267         0.014178     -0.336630      0.078583
S	      6.98505     10.09111      4.43743         0.129079      0.840288      0.139796
S	      5.29169     11.16178      1.46724         0.407153      0.119455      0.318029
S	      5.21034      7.02167      4.42875        -0.464504     -0.251082      0.195302
S	      1.65902     11.03420      1.48289        -0.295526      0.283565     -0.015220
S	      8.68465      6.98878      4.51194         0.634280     -0.012852     -0.048879
S	      3.50927      8.02164      7.45379        -0.011017     -0.839670      0.020329
S	      7.03480     10.09672     10.40627        -0.403897      0.792744      0.059177
S	      5.20730     11.14325      7.35296         0.714953      0.102389      0.388649
S	      5.23285      6.98674     10.46626        -1.039525     -0.430704     -0.291655
S	      1.69586     11.06294      7.44101        -0.470265      0.009301      0.350623
S	      8.64792      7.09764     10.39881         1.285738     -0.829425      0.319791
Ti	      6.96226     12.00822     11.93580         0.327214     -0.124401     -0.383671
Ti	      0.04519      0.04676      2.96782        -0.038803      0.234552     -0.037336
Ti	     -6.91528     12.04080      5.97286        -0.051145     -0.176566     -0.406655
Ti	     13.87088      0.07339      8.92615         0.009221     -0.069838      0.573071
Ti	     -3.40300      6.04105     11.92630        -0.168266     -0.096497      0.658817
Ti	     10.36874      6.04602      3.01182         0.071251     -0.104854     -0.604425
Ti	     10.38839      6.05617      5.94666         0.277762     -0.326922      0.691538
Ti	     -3.47157      6.05771      9.02073        -0.409996     -0.262907     -0.649999
Ti	     -0.00326     12.02194     11.88506         0.296032      0.771404      0.551678
Ti	     -0.07429     12.00007      2.96994         0.342856      0.943826     -0.208107
Ti	     -0.05410     11.99446      6.00691         0.071602      0.755395     -1.339639
Ti	      0.05052     12.02252      8.90310         0.035885      0.665182      0.464287
Ti	      3.48000      5.96794      0.00519         0.119987      0.341506      0.404487
Ti	      3.54117      6.04921      3.06364        -0.379233     -0.073331     -0.232999
Ti	      3.56039      5.99739      6.03323        -0.756482      0.078187     -0.775233
Ti	      3.45415      5.95892      8.91034        -0.413712      0.456314      1.044288
80
energy=-576.569307 Config_type=var-cell_1.hse Weight=1.0 Lattice="13.647120000 0.000000000 0.000000000 -6.823560000 11.818752608 0.000000000 0.000000000 0.000000000 11.711960000" Virial="-11.66580 -2.50042 3.61163 -2.50042 -7.99772 -0.95162 3.61163 -0.95162 -2.18296" Properties=species:S:1:pos:R:3:force:R:3
Ba	      0.02484      3.93267      4.42437        -0.081503     -0.168016     -0.101265
Ba	      3.48793      1.95808      1.45229        -0.079308      0.167425     -0.029085
Ba	     -0.03009      4.03220     10.24729         0.143826     -0.008774      0.104154
Ba	      3.35889      2.01092      7.25893         0.150895     -0.114457      0.093299
Ba	     -3.43574      9.83968      4.33667         0.105010      0.145385      0.082215
Ba	     -0.05981      7.91979      1.53181         0.113687     -0.294009     -0.156291
Ba	     -3.40693      9.89739     10.21286        -0.053963     -0.129232     -0.055269
Ba	     -0.01638      7.85956      7.24680        -0.058450      0.150322      0.126389
Ba	      6.86311      3.89411      4.46212        -0.156864      0.032413     -0.092739
Ba	     10.16525      1.99913      1.57352         0.159920     -0.134815     -0.073685
Ba	      6.83608      3.95691     10.21396        -0.144051     -0.090849      0.087019
Ba	     10.24695      1.98445      7.28426         0.086464     -0.174312     -0.009782
Ba	      3.44306      9.80610      4.33844         0.103803      0.178861     -0.053317
Ba	      6.84768      7.86800      1.49970        -0.175340      0.015227     -0.100162
Ba	      3.44032      9.90574     10.29567         0.115875     -0.017381      0.092091
Ba	      6.85613      7.86340      7.35792        -0.037349      0.092955      0.100178
S	      0.01210      1.83546      1.37775        -0.035255      0.822298      0.827144
S	      3.38367      3.92761      4.40770         0.288020      0.394915      0.100896
S	      1.69398      4.87320      1.53728         0.531057      0.375495      0.092100
S	      1.66111      0.96894      4.32075        -0.100727     -0.078179      0.308975
S	     -1.76660      4.94936      1.40645        -0.019649      0.125794      0.853688
S	      5.16995      0.93553      4.37740         0.101851      0.099285     -0.125790
S	     -0.00578      1.91607      7.24605         0.058407     -0.170001      0.414471
S	      3.37579      3.95522     10.30082        -0.073765      0.514871     -0.129417
S	      1.75656      4.85566      7.33618         0.191853      0.468434     -0.014803
S	      1.65315      0.93171     10.27855         0.715722      0.341709     -0.437904
S	     -1.68783      4.99038      7.27801        -0.229247     -0.036394      0.345810
S	      5.13570      0.98212     10.29674         0.078957     -0.252994     -0.366763
S	     -3.41357      7.91873      1.33301        -0.290665     -0.427241      1.095393
S	      0.04110      9.89198      4.37703        -0.093158     -0.360345      0.031618
S	     -1.66781     10.75381      1.45301        -0.126042      0.294301      0.144981
S	     -1.72153      6.94883      4.36607        -0.326024     -0.316735     -0.116106
S	     -5.19159     10.82810      1.50977         0.479673     -0.293305     -0.050431
S	      1.75582      6.84845      4.41765        -0.407029      0.347088      0.165510
S	     -3.42892      7.80038      7.31191         0.125330      0.016532      0.388443
S	      0.02020      9.98194     10.25669        -0.028396     -1.194920     -0.227180
S	     -1.65952     10.84947      7.22404         0.400219      0.014088      0.408409
S	     -1.74071      6.87795     10.37113         0.046524      0.101160     -0.979494
S	     -5.16078     10.86827      7.31824         0.023937      0.056742     -0.071397
S	      1.68095      6.93208     10.28556         0.598072     -0.209519     -0.251141
S	      6.77044      1.95480      1.41802         0.185921     -0.581187      0.316518
S	     10.31284      3.93909      4.37588        -0.205429      0.758058      0.005560
S	      8.60362      4.88227      1.47537        -0.068820      0.529776      0.666384
S	      8.56132      0.88519      4.40122        -0.204889      0.394916     -0.519910
S	      5.09717      4.98291      1.40215        -0.215393      0.030618      0.559831
S	     11.90870      0.99166      4.40683         0.802466     -0.454160     -0.175399
S	      6.88149      1.89009      7.36814        -0.154497      0.126726     -0.273916
S	     10.25598      4.01936     10.34280        -0.024117     -0.367098     -0.915884
S	      8.55067      4.90613      7.27550         0.467069      0.022541      0.277108
S	      8.45517      0.96171     10.26502         0.294431      0.046610     -0.050109
S	      5.09801      4.98518      7.32063        -0.135274     -0.190155      0.095771
S	     12.04740      0.95233     10.38397        -0.653195      0.179446     -0.841012
S	      3.42248      7.77821      1.47265        -0.235953      0.109264      0.301132
S	      6.84283      9.84344      4.39967         0.011887      0.053178      0.003919
S	      5.15407     10.79604      1.48188         0.110972      0.005432      0.098858
S	      5.11222      6.92909      4.44468        -0.581108     -0.596052     -0.043986
S	      1.60352     10.80630      1.48975         0.285617      0.134072     -0.162620
S	      8.58863      6.90069      4.58462        -0.154668     -0.069140     -1.181901
S	      3.44609      7.75986      7.29638        -0.360252      1.267415     -0.170467
S	      6.87801      9.89085     10.19408        -0.127357     -0.038356     -0.012197
S	      5.11540     10.88717      7.28346         0.343203     -0.031759      0.276962
S	      5.09500      6.87722     10.21538        -0.314097     -0.031685      0.041920
S	      1.77960     10.88489      7.21872        -0.575199     -0.175820      0.534618
S	      8.57226      6.84185     10.29059        -0.182366      0.022413     -0.722116
Ti	      0.07896      0.03837     11.68849        -0.294485     -0.790491      0.279873
Ti	     -6.79643     11.79558      2.90470        -0.689070      0.218033     -0.475589
Ti	      6.83400     11.72077      5.78957        -0.316834      0.314784      0.543339
Ti	      0.00984      0.03692      8.79254        -0.329912     -0.071862     -0.719053
Ti	     -3.41538      5.95955      0.01808         0.148081      0.107365      0.245335
Ti	     10.20308      5.92745      3.00489         0.177056     -0.359744     -1.162085
Ti	     -3.39697      5.92243      5.85624         0.382646     -0.175761      0.538788
Ti	     10.22361      5.83861      8.76294        -0.016905      0.057170      0.721445
Ti	     -0.04953     11.79044      0.00498         0.025545      0.810577      0.483335
Ti	     -0.02517     11.74122      2.93142        -0.044618      0.322388     -0.406792
Ti	      6.91685      0.02369      5.79641        -0.121723      0.051971      1.232424
Ti	      0.03283     11.77002      8.82332        -0.186597      0.375441     -1.032188
Ti	      3.43544      5.90573     11.66962        -0.099215     -0.412246     -0.132883
Ti	      3.33604      5.88705      2.97081         0.419325     -0.261900     -1.575187
Ti	      3.37314      5.89754      5.83171         0.610483     -0.713724     -0.250644
Ti	      3.41587      6.02511      8.69061        -0.075046     -0.900877      1.180061
80
energy=-576.239786 Config_type=var-cell_2.hse Weight=1.0 Lattice="13.647120000 0.000000000 0.000000000 -6.823560000 11.818752608 0.000000000 0.000000000 0.000000000 11.711960000" Virial="-18.62034 -1.18817 -3.83141 -1.18817 -16.97096 -1.74645 -3.83141 -1.74645 -7.45137" Properties=species:S:1:pos:R:3:force:R:3
Ba	      0.08943      3.96141      4.39681        -0.060852     -0.338626     -0.018006
Ba	      3.31861      1.95592      1.44626         0.097383     -0.107937     -0.109715
Ba	      0.03725      4.03839     10.18576        -0.062710     -0.469838      0.104207
Ba	      3.38046      1.92960      7.19902        -0.065307      0.033340      0.201849
Ba	     -3.35937      9.91565      4.38211        -0.153801     -0.153636     -0.180678